
#(C) 2019 by FIZ Karlsruhe - Leibniz Institute for Information Infrastructure.  All rights reserved.
data_251635-ICSD
_database_code_ICSD 251635
_audit_creation_date 2016-02-01
_chemical_name_systematic 'Sodium thulium tellurium boron oxide (2/2/1/2/10)'
_chemical_formula_structural 'Na2 Tm2 Te B2 O10'
_chemical_formula_sum 'B2 Na2 O10 Te1 Tm2'
_chemical_name_structure_type Na2Y2TeB2O10
_exptl_crystal_density_diffrn 5.73
_cell_measurement_temperature 293.
_publ_section_title

;
Na2 RE2 Te O4 (B O3)2 (RE = Y, Dy-Lu): luminescent and structural studies on a
series of mixed metal borotellurates
;
loop_
_citation_id
_citation_journal_full
_citation_year
_citation_journal_volume
_citation_page_first
_citation_page_last
_citation_journal_id_ASTM
primary 'Inorganic Chemistry' 2015 54 2447 2454 INOCAJ
loop_
_publ_author_name
'Feng, Jiang-He'
'Hu, Chun-Li'
'Xu, Xiang'
'Kong, Fang'
'Mao, Jiang-Gao'
_cell_length_a 6.2801(4)
_cell_length_b 9.8594(6)
_cell_length_c 6.6918(4)
_cell_angle_alpha 90.
_cell_angle_beta 104.085(6)
_cell_angle_gamma 90.
_cell_volume 401.88
_cell_formula_units_Z 2
_symmetry_space_group_name_H-M 'P 1 21/c 1'
_symmetry_Int_Tables_number 14
_refine_ls_R_factor_all 0.0221
loop_
_symmetry_equiv_pos_site_id
_symmetry_equiv_pos_as_xyz
1 'x, -y+1/2, z+1/2'
2 '-x, -y, -z'
3 '-x, y+1/2, -z+1/2'
4 'x, y, z'
loop_
_atom_type_symbol
_atom_type_oxidation_number
Tm3+ 3
Te6+ 6
Na1+ 1
O2- -2
B3+ 3
loop_
_atom_site_label
_atom_site_type_symbol
_atom_site_symmetry_multiplicity
_atom_site_Wyckoff_symbol
_atom_site_fract_x
_atom_site_fract_y
_atom_site_fract_z
_atom_site_B_iso_or_equiv
_atom_site_occupancy
_atom_site_attached_hydrogens
Tm1 Tm3+ 4 e 0.12688(6) 0.83382(3) 0.02419(4) 0.00419(15) 1 0
Te1 Te6+ 2 c 0. 0.5 0. 0.00333(19) 1 0
Na1 Na1+ 4 e -0.4167(6) 0.6107(3) 0.1669(5) 0.0166(7) 1 0
O1 O2- 4 e 0.4791(9) 0.8288(5) 0.0531(7) 0.0074(12) 1 0
O2 O2- 4 e -0.0018(9) 0.6496(5) 0.1791(7) 0.0041(11) 1 0
O3 O2- 4 e 0.2897(9) 0.4370(5) 0.1627(7) 0.0093(12) 1 0
O4 O2- 4 e -0.1970(9) 0.9380(5) 0.0080(6) 0.0042(11) 1 0
O5 O2- 4 e -0.1604(9) 0.3846(5) 0.1359(7) 0.0073(12) 1 0
B1 B3+ 4 e 0.3349(15) 0.3991(8) 0.3735(11) 0.0017(16) 1 0
loop_
_atom_site_aniso_label
_atom_site_aniso_type_symbol
_atom_site_aniso_U_11
_atom_site_aniso_U_22
_atom_site_aniso_U_33
_atom_site_aniso_U_12
_atom_site_aniso_U_13
_atom_site_aniso_U_23
Tm1 Tm3+ 0.0047(2) 0.0038(2) 0.00475(19) -0.00050(13) 0.00241(14) -0.00016(12)
Te1 Te6+ 0.0049(4) 0.0024(4) 0.0033(3) -0.0001(3) 0.0021(3) 0.0007(3)
Na1 Na1+ 0.015(2) 0.0151(17) 0.0197(16) -0.0007(15) 0.0048(14) 0.0025(14)
O1 O2- 0.005(3) 0.007(3) 0.009(2) -0.005(2) 0.002(2) -0.002(2)
O2 O2- 0.0045(14) 0.0042(14) 0.0039(13) -0.0009(9) 0.0018(9) -0.0012(9)
O3 O2- 0.009(3) 0.012(3) 0.007(2) 0.002(2) 0.002(2) 0.003(2)
O4 O2- 0.005(2) 0.003(2) 0.0058(19) -0.0015(17) 0.0034(17) 0.0005(16)
O5 O2- 0.010(3) 0.004(3) 0.009(2) -0.002(2) 0.005(2) -0.002(2)
B1 B3+ 0.0018(19) 0.0015(18) 0.0017(18) -0.0010(10) 0.0001(10) -0.0002(10)
#End of TTdata_251635-ICSD