
#(C) 2019 by FIZ Karlsruhe - Leibniz Institute for Information Infrastructure.  All rights reserved.
data_251632-ICSD
_database_code_ICSD 251632
_audit_creation_date 2016-02-01
_chemical_name_systematic 'Sodium dysprosium tellurium boron oxide (2/2/1/2/10)'
_chemical_formula_structural 'Na2 Dy2 Te B2 O10'
_chemical_formula_sum 'B2 Dy2 Na2 O10 Te1'
_chemical_name_structure_type Na2Y2TeB2O10
_exptl_crystal_density_diffrn 5.49
_cell_measurement_temperature 293.
_publ_section_title

;
Na2 RE2 Te O4 (B O3)2 (RE = Y, Dy-Lu): luminescent and structural studies on a
series of mixed metal borotellurates
;
loop_
_citation_id
_citation_journal_full
_citation_year
_citation_journal_volume
_citation_page_first
_citation_page_last
_citation_journal_id_ASTM
primary 'Inorganic Chemistry' 2015 54 2447 2454 INOCAJ
loop_
_publ_author_name
'Feng, Jiang-He'
'Hu, Chun-Li'
'Xu, Xiang'
'Kong, Fang'
'Mao, Jiang-Gao'
_cell_length_a 6.3089(5)
_cell_length_b 9.9808(7)
_cell_length_c 6.7489(6)
_cell_angle_alpha 90.
_cell_angle_beta 104.394(8)
_cell_angle_gamma 90.
_cell_volume 411.62
_cell_formula_units_Z 2
_symmetry_space_group_name_H-M 'P 1 21/c 1'
_symmetry_Int_Tables_number 14
_refine_ls_R_factor_all 0.0359
loop_
_symmetry_equiv_pos_site_id
_symmetry_equiv_pos_as_xyz
1 'x, -y+1/2, z+1/2'
2 '-x, -y, -z'
3 '-x, y+1/2, -z+1/2'
4 'x, y, z'
loop_
_atom_type_symbol
_atom_type_oxidation_number
Dy3+ 3
Te6+ 6
Na1+ 1
O2- -2
B3+ 3
loop_
_atom_site_label
_atom_site_type_symbol
_atom_site_symmetry_multiplicity
_atom_site_Wyckoff_symbol
_atom_site_fract_x
_atom_site_fract_y
_atom_site_fract_z
_atom_site_B_iso_or_equiv
_atom_site_occupancy
_atom_site_attached_hydrogens
Dy1 Dy3+ 4 e 0.12668(8) 0.83329(4) 0.02403(7) 0.0102(3) 1 0
Te1 Te6+ 2 c 0. 0.5 0. 0.0093(3) 1 0
Na1 Na1+ 4 e -0.4157(8) 0.6106(4) 0.1635(7) 0.0248(11) 1 0
O1 O2- 4 e 0.4844(13) 0.8268(6) 0.0564(12) 0.0176(18) 1 0
O2 O2- 4 e -0.0084(13) 0.6485(6) 0.1769(11) 0.0126(16) 1 0
O3 O2- 4 e 0.2880(14) 0.4392(7) 0.1662(11) 0.0193(17) 1 0
O4 O2- 4 e -0.2017(12) 0.9379(7) 0.0079(11) 0.0158(16) 1 0
O5 O2- 4 e -0.1602(12) 0.3862(6) 0.1344(11) 0.0133(16) 1 0
B1 B3+ 4 e 0.338(2) 0.3997(11) 0.3740(18) 0.013(2) 1 0
loop_
_atom_site_aniso_label
_atom_site_aniso_type_symbol
_atom_site_aniso_U_11
_atom_site_aniso_U_22
_atom_site_aniso_U_33
_atom_site_aniso_U_12
_atom_site_aniso_U_13
_atom_site_aniso_U_23
Dy1 Dy3+ 0.0097(4) 0.0076(4) 0.0135(4) -0.00034(18) 0.0033(2) 0.00016(16)
Te1 Te6+ 0.0094(5) 0.0065(5) 0.0118(5) -0.0008(4) 0.0022(4) 0.0000(3)
Na1 Na1+ 0.024(3) 0.021(2) 0.031(3) 0.000(2) 0.010(2) 0.001(2)
O1 O2- 0.011(4) 0.017(4) 0.023(5) 0.006(3) 0.000(3) 0.001(3)
O2 O2- 0.016(4) 0.010(3) 0.013(4) -0.005(3) 0.005(3) -0.004(3)
O3 O2- 0.022(5) 0.019(4) 0.016(4) 0.003(4) 0.004(3) -0.002(3)
O4 O2- 0.013(4) 0.011(3) 0.025(4) -0.001(3) 0.007(3) 0.005(3)
O5 O2- 0.010(4) 0.007(3) 0.023(4) -0.002(3) 0.004(3) -0.001(3)
B1 B3+ 0.012(3) 0.010(3) 0.014(3) -0.003(3) 0.002(3) 0.003(3)
#End of TTdata_251632-ICSD