
#(C) 2019 by FIZ Karlsruhe - Leibniz Institute for Information Infrastructure.  All rights reserved.
data_251666-ICSD
_database_code_ICSD 251666
_audit_creation_date 2016-02-01
_chemical_name_systematic 'Tetrasodium nickel pyrophosphate difluoride'
_chemical_formula_structural 'Na4 Ni (P2 O7) F2'
_chemical_formula_sum 'F2 Na4 Ni1 O7 P2'
_exptl_crystal_density_diffrn 2.92
_cell_measurement_temperature 295.
_publ_section_title

;
Synthesis, structure, and Na-ion migration in Na4 Ni P2 O7 F2: a prospective
high voltage positive electrode material for the Na-ion battery
;
loop_
_citation_id
_citation_journal_full
_citation_year
_citation_journal_volume
_citation_page_first
_citation_page_last
_citation_journal_id_ASTM
primary 'Chemistry of Materials' 2015 27 885 891 CMATEX
loop_
_publ_author_name
'Kundu, Dipan'
'Tripathi, Rajesh'
'Popov, Guerman'
'Makahnouk, W.R.M.'
'Nazar, Linda F.'
_cell_length_a 14.9660(1)
_cell_length_b 7.08861(6)
_cell_length_c 7.77870(2)
_cell_angle_alpha 90.
_cell_angle_beta 90.
_cell_angle_gamma 90.
_cell_volume 825.23
_cell_formula_units_Z 4
_symmetry_space_group_name_H-M 'I m m a'
_symmetry_Int_Tables_number 74
_refine_ls_R_factor_all 0.0132
loop_
_symmetry_equiv_pos_site_id
_symmetry_equiv_pos_as_xyz
1 '-x, y+1/2, -z'
2 '-x, -y+1/2, z'
3 '-x, y, z'
4 '-x, -y, -z'
5 'x, -y+1/2, z'
6 'x, y+1/2, -z'
7 'x, -y, -z'
8 'x, y, z'
9 '-x+1/2, y, -z+1/2'
10 '-x+1/2, -y, z+1/2'
11 '-x+1/2, y+1/2, z+1/2'
12 '-x+1/2, -y+1/2, -z+1/2'
13 'x+1/2, -y, z+1/2'
14 'x+1/2, y, -z+1/2'
15 'x+1/2, -y+1/2, -z+1/2'
16 'x+1/2, y+1/2, z+1/2'
loop_
_atom_type_symbol
_atom_type_oxidation_number
Ni2+ 2
P5+ 5
F1- -1
O2- -2
Na1+ 1
loop_
_atom_site_label
_atom_site_type_symbol
_atom_site_symmetry_multiplicity
_atom_site_Wyckoff_symbol
_atom_site_fract_x
_atom_site_fract_y
_atom_site_fract_z
_atom_site_B_iso_or_equiv
_atom_site_occupancy
_atom_site_attached_hydrogens
Ni1 Ni2+ 4 a 0.5 0 0.5 1.17(6) 1. 0
P1 P5+ 8 i 0.4016(1) 0.25 0.7793(2) 1.04(7) 1. 0
F1 F1- 4 e 0.5 0.25 0.3868(5) 0.1(1) 1. 0
F2 F1- 4 c 0.25 0.25 0.25 3.0(2) 1. 0
O1 O2- 16 j 0.4009(2) 0.0709(3) 0.6721(3) 0.67(8) 1. 0
O2 O2- 8 i 0.6642(2) 0.25 0.9273(5) 1.9(1) 1. 0
O3 O2- 4 e 0.5 0.25 0.8776(7) 1.9(2) 1. 0
Na1 Na1+ 8 f 0.2332(1) 0 0 2.82(8) 1. 0
Na2 Na1+ 8 i 0.1122(2) 0.25 0.2991(3) 2.82(8) 1. 0
#End of TTdata_251666-ICSD