
#(C) 2019 by FIZ Karlsruhe - Leibniz Institute for Information Infrastructure.  All rights reserved.
data_252024-ICSD
_database_code_ICSD 252024
_audit_creation_date 2016-02-01
_chemical_name_systematic 'Sodium iron manganese oxide (0.18/0.67/0.33/2)'
_chemical_formula_structural 'Na0.18 (Fe0.67 Mn0.33) O2'
_chemical_formula_sum 'Fe0.67 Mn0.33 Na0.18 O2'
_chemical_name_structure_type Delafossite-NaFeO2
_exptl_crystal_density_diffrn 3.88
_publ_section_title

;
The unique structural evolution of the O3-phase Na2/3 Fe2/3 Mn1/3 O2 during
high rate charge/discharge: A sodium-centred perspective
;
loop_
_citation_id
_citation_journal_full
_citation_year
_citation_journal_volume
_citation_page_first
_citation_page_last
_citation_journal_id_ASTM
primary 'Advanced Functional Materials' 2015 25 4994 5005 AFMDC6
loop_
_publ_author_name
'Sharma, Neeraj'
'Gonzalo, Elena'
'Pramudita, James C.'
'Han, Man Huon'
'Brand, Helen E.A.'
'Hart, Judy N.'
'Pang, Wei Kong'
'Guo, Zaiping'
'Rojo, Teofilo'
_cell_length_a 2.8992(4)
_cell_length_b 2.8992(4)
_cell_length_c 16.192(2)
_cell_angle_alpha 90.
_cell_angle_beta 90.
_cell_angle_gamma 120.
_cell_volume 117.87
_cell_formula_units_Z 3
_symmetry_space_group_name_H-M 'R -3 m H'
_symmetry_Int_Tables_number 166
_refine_ls_R_factor_all 0.0176
loop_
_symmetry_equiv_pos_site_id
_symmetry_equiv_pos_as_xyz
1 'x-y, -y, -z'
2 '-x, -x+y, -z'
3 'y, x, -z'
4 'x-y, x, -z'
5 'y, -x+y, -z'
6 '-x, -y, -z'
7 '-x+y, y, z'
8 'x, x-y, z'
9 '-y, -x, z'
10 '-x+y, -x, z'
11 '-y, x-y, z'
12 'x, y, z'
13 'x-y+2/3, -y+1/3, -z+1/3'
14 '-x+2/3, -x+y+1/3, -z+1/3'
15 'y+2/3, x+1/3, -z+1/3'
16 'x-y+2/3, x+1/3, -z+1/3'
17 'y+2/3, -x+y+1/3, -z+1/3'
18 '-x+2/3, -y+1/3, -z+1/3'
19 '-x+y+2/3, y+1/3, z+1/3'
20 'x+2/3, x-y+1/3, z+1/3'
21 '-y+2/3, -x+1/3, z+1/3'
22 '-x+y+2/3, -x+1/3, z+1/3'
23 '-y+2/3, x-y+1/3, z+1/3'
24 'x+2/3, y+1/3, z+1/3'
25 'x-y+1/3, -y+2/3, -z+2/3'
26 '-x+1/3, -x+y+2/3, -z+2/3'
27 'y+1/3, x+2/3, -z+2/3'
28 'x-y+1/3, x+2/3, -z+2/3'
29 'y+1/3, -x+y+2/3, -z+2/3'
30 '-x+1/3, -y+2/3, -z+2/3'
31 '-x+y+1/3, y+2/3, z+2/3'
32 'x+1/3, x-y+2/3, z+2/3'
33 '-y+1/3, -x+2/3, z+2/3'
34 '-x+y+1/3, -x+2/3, z+2/3'
35 '-y+1/3, x-y+2/3, z+2/3'
36 'x+1/3, y+2/3, z+2/3'
loop_
_atom_type_symbol
_atom_type_oxidation_number
Na1+ 1
Mn5+ 5.5
Fe3+ 3
O2- -2
loop_
_atom_site_label
_atom_site_type_symbol
_atom_site_symmetry_multiplicity
_atom_site_Wyckoff_symbol
_atom_site_fract_x
_atom_site_fract_y
_atom_site_fract_z
_atom_site_B_iso_or_equiv
_atom_site_occupancy
_atom_site_attached_hydrogens
Na1 Na1+ 3 a 0 0 0 . 0.18 0
Mn1 Mn5+ 3 b 0 0 0.5 0.0792 0.333 0
Fe1 Fe3+ 3 b 0 0 0.5 0.0792 0.667 0
O1 O2- 6 c 0 0 0.251(1) 0.0749 1. 0
#End of TTdata_252024-ICSD