
#(C) 2019 by FIZ Karlsruhe - Leibniz Institute for Information Infrastructure.  All rights reserved.
data_252379-ICSD
_database_code_ICSD 252379
_audit_creation_date 2016-08-01
_chemical_name_systematic 'Sodium-2.75 iron(II)-1.75 trisulfate'
_chemical_formula_structural 'Na2.5 Fe1.75 (S O4)3'
_chemical_formula_sum 'Fe1.75 Na2.5 O12 S3'
_exptl_crystal_density_diffrn 3.11
_cell_measurement_temperature 300.
_publ_section_title

;
High-temperature neutron and X-ray diffraction study of fast sodium transport
in alluaudite-type sodium iron sulfate
;
loop_
_citation_id
_citation_journal_full
_citation_year
_citation_journal_volume
_citation_page_first
_citation_page_last
_citation_journal_id_ASTM
primary 'Chemistry of Materials' 2016 28 2393 2399 CMATEX
loop_
_publ_author_name
'Nishimura, Shin-ichi'
'Suzuki, Yuya'
'Lu, Jiechen'
'Torii, Shuki'
'Kamiyama, Takashi'
'Yamada, Atsuo'
_cell_length_a 12.64974(4)
_cell_length_b 12.76248(4)
_cell_length_c 6.508625(17)
_cell_angle_alpha 90
_cell_angle_beta 115.5396(3)
_cell_angle_gamma 90
_cell_volume 948.08
_cell_formula_units_Z 4
_symmetry_space_group_name_H-M 'C 1 2/c 1'
_symmetry_Int_Tables_number 15
_refine_ls_R_factor_all 0.0512
loop_
_symmetry_equiv_pos_site_id
_symmetry_equiv_pos_as_xyz
1 'x, -y, z+1/2'
2 '-x, -y, -z'
3 '-x, y, -z+1/2'
4 'x, y, z'
5 'x+1/2, -y+1/2, z+1/2'
6 '-x+1/2, -y+1/2, -z'
7 '-x+1/2, y+1/2, -z+1/2'
8 'x+1/2, y+1/2, z'
loop_
_atom_type_symbol
_atom_type_oxidation_number
Fe2+ 2
Na1+ 1
S6+ 6
O2- -2
S6+ 6
O2- -2
Na1+ 1
loop_
_atom_site_label
_atom_site_type_symbol
_atom_site_symmetry_multiplicity
_atom_site_Wyckoff_symbol
_atom_site_fract_x
_atom_site_fract_y
_atom_site_fract_z
_atom_site_B_iso_or_equiv
_atom_site_occupancy
_atom_site_attached_hydrogens
Fe1 Fe2+ 8 f 0.26987(6) 0.34210(5) 0.35406(12) . 0.875 0
Na1 Na1+ 8 f 0.26987(6) 0.34210(5) 0.35406(12) . 0.125 0
S1 S6+ 4 e 0.5 0.2235(2) 0.75 0.62(6) 1 0
O1 O2- 8 f 0.08512(8) 0.34528(7) 0.22064(17) . 1 0
O2 O2- 8 f 0.05370(9) 0.20951(7) 0.45382(19) . 1 0
S2 S6+ 8 f 0.23745(19) 0.10265(18) 0.1300(4) 1.00(5) 1 0
O3 O2- 8 f 0.23398(8) 0.16965(8) 0.31316(16) . 1 0
O4 O2- 8 f 0.18027(8) 0.00395(9) 0.12336(17) . 1 0
O5 O2- 8 f 0.32586(9) 0.34197(8) 0.08521(18) . 1 0
O6 O2- 8 f 0.35966(10) 0.08711(8) 0.17191(18) . 1 0
Na2 Na1+ 4 e 0 0.73305(19) 0.25 2.43(6) 1 0
Na3 Na1+ 8 f 0.4891(5) 0.0046(5) 0.0421(9) 1.86(11) 0.35 0
Na4 Na1+ 8 f -0.0072(11) 0.0113(4) 0.2839(19) 3.62(19) 0.275 0
loop_
_atom_site_aniso_label
_atom_site_aniso_type_symbol
_atom_site_aniso_U_11
_atom_site_aniso_U_22
_atom_site_aniso_U_33
_atom_site_aniso_U_12
_atom_site_aniso_U_13
_atom_site_aniso_U_23
Fe1 Fe2+ 0.0091(5) 0.0159(5) 0.0127(4) -0.0006(4) 0.0039(3) 0.0001(4)
Na1 Na1+ 0.0091(5) 0.0159(5) 0.0127(4) -0.0006(4) 0.0039(3) 0.0001(4)
O1 O2- 0.0257(7) 0.0214(8) 0.0222(9) -0.0070(7) 0.0051(6) 0.0042(7)
O2 O2- 0.0287(8) 0.0243(8) 0.0199(8) 0.0002(6) 0.0123(7) 0.0046(6)
O3 O2- 0.0299(8) 0.0142(7) 0.0182(7) 0.0026(6) 0.0133(7) -0.0018(6)
O4 O2- 0.0357(8) 0.0267(9) 0.0132(7) -0.0101(7) 0.0047(7) -0.0001(6)
O5 O2- 0.0481(8) 0.0158(7) 0.0197(8) 0.0061(7) 0.0154(7) 0.0034(7)
O6 O2- 0.0273(8) 0.0241(8) 0.0420(8) 0.0037(6) 0.0184(7) -0.0022(6)
#End of TTdata_252379-ICSD