
#(C) 2019 by FIZ Karlsruhe - Leibniz Institute for Information Infrastructure.  All rights reserved.
data_252392-ICSD
_database_code_ICSD 252392
_audit_creation_date 2016-08-01
_chemical_name_systematic 'Disodium calcium dicarbonate - alpha'
_chemical_formula_structural 'Na2 Ca (C O3)2'
_chemical_formula_sum 'C2 Ca1 Na2 O6'
_chemical_name_mineral Nyerereite
_exptl_crystal_density_diffrn 2.54
_cell_measurement_temperature 293.
_publ_section_title

;
Hydrothermal synthesis and structure solution of Na2Ca(CO3)2: "Synthetic
analogue" of mineral nyerereite
;
loop_
_citation_id
_citation_journal_full
_citation_year
_citation_journal_volume
_citation_page_first
_citation_page_last
_citation_journal_id_ASTM
primary 'Crystal Growth & Design' 2016 16 1893 1902 CGDEFU
loop_
_publ_author_name
'Gavryushkin, Pavel N.'
'Thomas, Victor G.'
'Bolotina, Nadezhda B.'
'Bakakin, Vladimir V.'
'Golovin, Alexander V.'
'Seryotkin, Yurii V.'
'Fursenko, Dmitry A.'
'Litasov, Konstantin D.'
_cell_length_a 10.0713(5)
_cell_length_b 8.7220(2)
_cell_length_c 12.2460(4)
_cell_angle_alpha 90
_cell_angle_beta 90
_cell_angle_gamma 90
_cell_volume 1075.71
_cell_formula_units_Z 8
_symmetry_space_group_name_H-M 'P 21 c a'
_symmetry_Int_Tables_number 29
_refine_ls_R_factor_all 0.0591
loop_
_symmetry_equiv_pos_site_id
_symmetry_equiv_pos_as_xyz
1 'x, -y, z+1/2'
2 'x+1/2, y, -z+1/2'
3 'x+1/2, -y, -z'
4 'x, y, z'
loop_
_atom_type_symbol
_atom_type_oxidation_number
Ca2+ 2
Na1+ 1
C4+ 4
O2- -2
loop_
_atom_site_label
_atom_site_type_symbol
_atom_site_symmetry_multiplicity
_atom_site_Wyckoff_symbol
_atom_site_fract_x
_atom_site_fract_y
_atom_site_fract_z
_atom_site_B_iso_or_equiv
_atom_site_occupancy
_atom_site_attached_hydrogens
Ca1 Ca2+ 4 a 0.75132(6) 0.45301(5) 0.22308(4) 0.01294(12) 1 0
Ca2 Ca2+ 4 a 0.49406(6) 0.95740(5) 0.22261(5) 0.01878(15) 1 0
Na1 Na1+ 4 a 0.48121(14) 0.30651(13) 0.07950(10) 0.0284(4) 1 0
Na2 Na1+ 4 a 0.02484(12) 0.30344(17) 0.10670(11) 0.0337(4) 1 0
Na3 Na1+ 4 a 0.77039(12) 0.81255(12) 0.08688(10) 0.0231(4) 1 0
Na4 Na1+ 4 a 0.22821(13) 0.81429(12) 0.11613(9) 0.0212(3) 1 0
C1 C4+ 4 a 0.50133(19) 0.62496(16) 0.22683(13) -0.0048(3) 1 0
C2 C4+ 4 a 0.7521(3) 0.1164(3) 0.2151(2) 0.0351(7) 1 0
C3 C4+ 4 a 0.9793(4) 0.9943(4) 0.0042(3) 0.0355(7) 1 0
C4 C4+ 4 a 0.2577(2) 0.4981(2) 0.00554(15) -0.0012(3) 1 0
O1 O2- 4 a 0.85862(18) 0.1983(2) 0.22208(15) 0.0125(4) 1 0
O2 O2- 4 a 0.6340(2) 0.1951(2) 0.21183(15) 0.0240(5) 1 0
O3 O2- 4 a 0.4959(2) 0.47026(15) 0.23090(13) 0.0118(3) 1 0
O4 O2- 4 a 0.61215(19) 0.6909(2) 0.22699(14) 0.0140(4) 1 0
O5 O2- 4 a 0.69705(17) 0.38014(17) 0.02480(13) 0.0144(3) 1 0
O6 O2- 4 a 0.3949(2) 0.6951(2) 0.21315(17) 0.0263(5) 1 0
O7 O2- 4 a 0.7461(3) 0.98090(16) 0.22933(14) 0.0207(4) 1 0
O8 O2- 4 a 0.0228(2) 0.9304(2) 0.09174(18) 0.0421(6) 1 0
O9 O2- 4 a 0.5644(2) 0.8993(2) 0.01790(16) 0.0377(5) 1 0
O10 O2- 4 a 0.3960(2) 0.0476(2) 0.05619(16) 0.0269(5) 1 0
O11 O2- 4 a 0.23860(17) 0.41017(14) 0.09027(11) 0.0084(3) 1 0
O12 O2- 4 a 0.8597(2) 0.5446(2) 0.05733(16) 0.0245(5) 1 0
loop_
_atom_site_aniso_label
_atom_site_aniso_type_symbol
_atom_site_aniso_U_11
_atom_site_aniso_U_22
_atom_site_aniso_U_33
_atom_site_aniso_U_12
_atom_site_aniso_U_13
_atom_site_aniso_U_23
Ca1 Ca2+ 0.0122(2) 0.01924(19) 0.00742(19) -0.0066(2) -0.0023(3) 0.00171(17)
Ca2 Ca2+ 0.0105(2) 0.01006(17) 0.0357(4) -0.0055(2) -0.0054(3) 0.00065(19)
Na1 Na1+ 0.0304(8) 0.0176(5) 0.0374(7) -0.0116(5) -0.0083(6) -0.0142(5)
Na2 Na1+ 0.0211(8) 0.0510(7) 0.0289(7) -0.0151(5) 0.0216(5) -0.0196(5)
Na3 Na1+ 0.0175(7) 0.0149(5) 0.0369(6) -0.0135(5) 0.0042(5) 0.0064(4)
Na4 Na1+ 0.0245(7) 0.0084(4) 0.0305(6) 0.0028(4) 0.0073(5) -0.0047(4)
#End of TTdata_252392-ICSD