
#(C) 2019 by FIZ Karlsruhe - Leibniz Institute for Information Infrastructure.  All rights reserved.
data_252401-ICSD
_database_code_ICSD 252401
_audit_creation_date 2016-08-01
_chemical_name_systematic 'Sodium-2.75 iron(II)-1.75 trisulfate'
_chemical_formula_structural 'Na2.5 Fe1.75 (S O4)3'
_chemical_formula_sum 'Fe1.75 Na2.5 O12 S3'
_exptl_crystal_density_diffrn 3.13
_cell_measurement_temperature 100.
_publ_section_title

;
High-temperature neutron and X-ray diffraction study of fast sodium transport
in alluaudite-type sodium iron sulfate
;
loop_
_citation_id
_citation_journal_full
_citation_year
_citation_journal_volume
_citation_page_first
_citation_page_last
_citation_journal_id_ASTM
primary 'Chemistry of Materials' 2016 28 2393 2399 CMATEX
loop_
_publ_author_name
'Nishimura, Shin-ichi'
'Suzuki, Yuya'
'Lu, Jiechen'
'Torii, Shuki'
'Kamiyama, Takashi'
'Yamada, Atsuo'
_cell_length_a 12.5976(2)
_cell_length_b 12.7294(2)
_cell_length_c 6.50026(11)
_cell_angle_alpha 90
_cell_angle_beta 115.5495(6)
_cell_angle_gamma 90
_cell_volume 940.46
_cell_formula_units_Z 4
_symmetry_space_group_name_H-M 'C 1 2/c 1'
_symmetry_Int_Tables_number 15
_refine_ls_R_factor_all 0.0215
loop_
_symmetry_equiv_pos_site_id
_symmetry_equiv_pos_as_xyz
1 'x, -y, z+1/2'
2 '-x, -y, -z'
3 '-x, y, -z+1/2'
4 'x, y, z'
5 'x+1/2, -y+1/2, z+1/2'
6 '-x+1/2, -y+1/2, -z'
7 '-x+1/2, y+1/2, -z+1/2'
8 'x+1/2, y+1/2, z'
loop_
_atom_type_symbol
_atom_type_oxidation_number
Fe2+ 2
Na1+ 1
S6+ 6
O2- -2
S6+ 6
O2- -2
Na1+ 1
loop_
_atom_site_label
_atom_site_type_symbol
_atom_site_symmetry_multiplicity
_atom_site_Wyckoff_symbol
_atom_site_fract_x
_atom_site_fract_y
_atom_site_fract_z
_atom_site_B_iso_or_equiv
_atom_site_occupancy
_atom_site_attached_hydrogens
Fe1 Fe2+ 8 f 0.73020(7) 0.15798(7) 0.14637(15) 0.57(3) 0.875 0
Na1 Na1+ 8 f 0.73020(7) 0.15798(7) 0.14637(15) 0.57(3) 0.125 0
S1 S6+ 4 e 0.5 0.27831(16) 0.75 0.80(6) 1. 0
O1 O2- 8 f 0.0860(2) 0.8470(2) 0.7227(5) 0.85(9) 1. 0
O2 O2- 8 f 0.4476(2) 0.2087(2) 0.5460(5) 0.14(8) 1. 0
S2 S6+ 8 f 0.76198(14) 0.60327(11) 0.8691(3) 0.74(4) 1. 0
O3 O2- 8 f 0.7679(2) 0.6712(2) 0.6850(4) 0.16(8) 1. 0
O4 O2- 8 f 0.3235(2) -0.0038(2) 0.3805(4) 1.00(8) 1. 0
O5 O2- 8 f 0.3286(2) 0.1595(2) 0.0883(5) 0.68(7) 1. 0
O6 O2- 8 f 0.1391(3) 0.0868(2) 0.8278(5) 1.24(9) 1. 0
Na2 Na1+ 4 e 0 0.2329(2) 0.75 1.08(8) 1. 0
Na3 Na1+ 8 f 0.0178(6) 0.0020(5) -0.0316(11) 0.81(14) 0.35 0
Na4 Na1+ 8 f 0.0056(16) 0.4853(5) 0.228(3) 2.0(2) 0.275 0
#End of TTdata_252401-ICSD