
#(C) 2019 by FIZ Karlsruhe - Leibniz Institute for Information Infrastructure.  All rights reserved.
data_252480-ICSD
_database_code_ICSD 252480
_audit_creation_date 2016-08-01
_chemical_name_systematic 'Sodium niobate(V) - LT'
_chemical_formula_structural 'Na Nb O3'
_chemical_formula_sum 'Na1 Nb1 O3'
_chemical_name_structure_type Perovskite-NaNbO3
_exptl_crystal_density_diffrn 4.62
_cell_measurement_temperature 12.
_publ_section_title

;
Competing antiferroelectric and ferroelectric interactions in NaNbO3: Neutron
diffraction and theoretical studies
;
loop_
_citation_id
_citation_journal_full
_citation_year
_citation_journal_volume
_citation_page_first
_citation_page_last
_citation_journal_id_ASTM
primary 'Physical Review B: Condensed Matter and Materials Physics' 2007 76
024110-1 024110-12 PRBMDO
loop_
_publ_author_name
'Mishra, S.K.'
'Choudhury, N.'
'Chaplot, S.L.'
'Krishna, P.S.R.'
'Mittal, R.'
_cell_length_a 5.50120(13)
_cell_length_b 5.56496(13)
_cell_length_c 15.39720(9)
_cell_angle_alpha 90.
_cell_angle_beta 90.
_cell_angle_gamma 90.
_cell_volume 471.37
_cell_formula_units_Z 8
_symmetry_space_group_name_H-M 'P b c m'
_symmetry_Int_Tables_number 57
_refine_ls_R_factor_all 0.0447
loop_
_symmetry_equiv_pos_site_id
_symmetry_equiv_pos_as_xyz
1 'x, -y+1/2, z+1/2'
2 '-x, y+1/2, z'
3 'x, y, -z+1/2'
4 '-x, -y, -z'
5 '-x, y+1/2, -z+1/2'
6 'x, -y+1/2, -z'
7 '-x, -y, z+1/2'
8 'x, y, z'
loop_
_atom_type_symbol
_atom_type_oxidation_number
Na1+ 1
Nb5+ 5
O2- -2
loop_
_atom_site_label
_atom_site_type_symbol
_atom_site_symmetry_multiplicity
_atom_site_Wyckoff_symbol
_atom_site_fract_x
_atom_site_fract_y
_atom_site_fract_z
_atom_site_B_iso_or_equiv
_atom_site_occupancy
_atom_site_attached_hydrogens
Na1 Na1+ 4 c 0.247(6) 0.75 0 1.3(6) 1. 0
Na2 Na1+ 4 d 0.227(3) 0.789(6) 0.25 0.2(2) 1. 0
Nb1 Nb5+ 8 e 0.2416(3) 0.2819(2) 0.1314(1) 0.1(1) 1. 0
O1 O2- 4 c 0.329(2) 0.25 0 0.2(1) 1. 0
O2 O2- 4 d 0.208(5) 0.278(3) 0.25 0.2(2) 1. 0
O3 O2- 8 e 0.530(3) 0.0402(2) 0.1378(2) 0.9(2) 1. 0
O4 O2- 8 e 0.9751(3) 0.489(2) 0.1065(1) 0.5(2) 1. 0
#End of TTdata_252480-ICSD