
#(C) 2019 by FIZ Karlsruhe - Leibniz Institute for Information Infrastructure.  All rights reserved.
data_252407-ICSD
_database_code_ICSD 252407
_audit_creation_date 2016-08-01
_chemical_name_systematic 'Sodium-2.75 iron(II)-1.75 trisulfate'
_chemical_formula_structural 'Na2.5 Fe1.75 (S O4)3'
_chemical_formula_sum 'Fe1.75 Na2.5 O12 S3'
_exptl_crystal_density_diffrn 3.07
_cell_measurement_temperature 500.
_publ_section_title

;
High-temperature neutron and X-ray diffraction study of fast sodium transport
in alluaudite-type sodium iron sulfate
;
loop_
_citation_id
_citation_journal_full
_citation_year
_citation_journal_volume
_citation_page_first
_citation_page_last
_citation_journal_id_ASTM
primary 'Chemistry of Materials' 2016 28 2393 2399 CMATEX
loop_
_publ_author_name
'Nishimura, Shin-ichi'
'Suzuki, Yuya'
'Lu, Jiechen'
'Torii, Shuki'
'Kamiyama, Takashi'
'Yamada, Atsuo'
_cell_length_a 12.71170(11)
_cell_length_b 12.81091(11)
_cell_length_c 6.52305(6)
_cell_angle_alpha 90
_cell_angle_beta 115.5279(4)
_cell_angle_gamma 90
_cell_volume 958.56
_cell_formula_units_Z 4
_symmetry_space_group_name_H-M 'C 1 2/c 1'
_symmetry_Int_Tables_number 15
_refine_ls_R_factor_all 0.0198
loop_
_symmetry_equiv_pos_site_id
_symmetry_equiv_pos_as_xyz
1 'x, -y, z+1/2'
2 '-x, -y, -z'
3 '-x, y, -z+1/2'
4 'x, y, z'
5 'x+1/2, -y+1/2, z+1/2'
6 '-x+1/2, -y+1/2, -z'
7 '-x+1/2, y+1/2, -z+1/2'
8 'x+1/2, y+1/2, z'
loop_
_atom_type_symbol
_atom_type_oxidation_number
Fe2+ 2
Na1+ 1
S6+ 6
O2- -2
S6+ 6
O2- -2
Na1+ 1
loop_
_atom_site_label
_atom_site_type_symbol
_atom_site_symmetry_multiplicity
_atom_site_Wyckoff_symbol
_atom_site_fract_x
_atom_site_fract_y
_atom_site_fract_z
_atom_site_B_iso_or_equiv
_atom_site_occupancy
_atom_site_attached_hydrogens
Fe1 Fe2+ 8 f 0.73112(6) 0.15726(6) 0.14687(13) 1.48(3) 0.875 0
Na1 Na1+ 8 f 0.73112(6) 0.15726(6) 0.14687(13) 1.48(3) 0.125 0
S1 S6+ 4 e 0.5 0.27494(14) 0.75 1.23(5) 1. 0
O1 O2- 8 f 0.0846(2) 0.8444(2) 0.7175(4) 1.99(7) 1. 0
O2 O2- 8 f 0.4453(2) 0.2074(2) 0.5466(5) 1.61(8) 1. 0
S2 S6+ 8 f 0.76028(13) 0.60220(10) 0.8686(3) 1.58(3) 1. 0
O3 O2- 8 f 0.7650(2) 0.67017(19) 0.6850(4) 1.06(7) 1. 0
O4 O2- 8 f 0.3196(2) -0.0040(2) 0.3767(4) 2.50(8) 1. 0
O5 O2- 8 f 0.3248(2) 0.1572(2) 0.0845(5) 1.74(7) 1. 0
O6 O2- 8 f 0.1389(3) 0.0866(2) 0.8281(5) 2.76(9) 1. 0
Na2 Na1+ 4 e 0 0.2345(2) 0.75 2.67(7) 1. 0
Na3 Na1+ 8 f 0.0145(6) -0.0009(5) -0.0375(10) 2.33(14) 0.35 0
Na4 Na1+ 8 f -0.0039(14) 0.4859(5) 0.287(2) 5.1(2) 0.275 0
#End of TTdata_252407-ICSD