
#(C) 2019 by FIZ Karlsruhe - Leibniz Institute for Information Infrastructure.  All rights reserved.
data_252420-ICSD
_database_code_ICSD 252420
_audit_creation_date 2016-08-01
_chemical_name_systematic 'Silver-0.6 sodium-0.4 iron(III) bis(molybdate(VI))'
_chemical_formula_structural '(Ag0.60 Na0.40) Fe (Mo O4)2'
_chemical_formula_sum 'Ag0.6 Fe1 Mo2 Na0.4 O8'
_chemical_name_structure_type NaFe(MoO4)2
_exptl_crystal_density_diffrn 4.23
_cell_measurement_temperature 298.
_publ_section_title

;
Synthese, etude et validation structurale d'un triple bis-molybdate en
couches, Ag0.60 Na0.40 Fe (MoO4)2 lie a yavapaiite
;
loop_
_citation_id
_citation_journal_full
_citation_year
_citation_journal_volume
_citation_page_first
_citation_page_last
_citation_journal_id_ASTM
primary 'Acta Crystallographica, Section E: Crystallographic Communications'
2016 72 737 740 ACSECI
loop_
_publ_author_name
'Souilem, Amira'
'Zid, Mohamed Faouzi'
_cell_length_a 9.8310(9)
_cell_length_b 5.2740(6)
_cell_length_c 13.617(2)
_cell_angle_alpha 90.
_cell_angle_beta 90.334(8)
_cell_angle_gamma 90.
_cell_volume 706.01
_cell_formula_units_Z 4
_symmetry_space_group_name_H-M 'C 1 2/c 1'
_symmetry_Int_Tables_number 15
_refine_ls_R_factor_all 0.0254
loop_
_symmetry_equiv_pos_site_id
_symmetry_equiv_pos_as_xyz
1 'x, -y, z+1/2'
2 '-x, -y, -z'
3 '-x, y, -z+1/2'
4 'x, y, z'
5 'x+1/2, -y+1/2, z+1/2'
6 '-x+1/2, -y+1/2, -z'
7 '-x+1/2, y+1/2, -z+1/2'
8 'x+1/2, y+1/2, z'
loop_
_atom_type_symbol
_atom_type_oxidation_number
Mo6+ 6
Ag1+ 1
Na1+ 1
Fe3+ 3
O2- -2
loop_
_atom_site_label
_atom_site_type_symbol
_atom_site_symmetry_multiplicity
_atom_site_Wyckoff_symbol
_atom_site_fract_x
_atom_site_fract_y
_atom_site_fract_z
_atom_site_B_iso_or_equiv
_atom_site_occupancy
_atom_site_attached_hydrogens
Mo1 Mo6+ 8 f 0.67543(3) 0.03643(7) 0.61867(3) 0.0095(2) 1 0
Ag1 Ag1+ 4 e 0.5 0.57001(16) 0.75 0.0214(3) 0.597(4) 0
Na1 Na1+ 4 e 0.5 0.57001(16) 0.75 0.0214(3) 0.403(5) 0
Fe1 Fe3+ 4 a 0.5 0.5 0.5 0.0138(3) 1 0
O1 O2- 8 f 0.5741(3) 0.3200(6) 0.6162(2) 0.0146(6) 1 0
O2 O2- 8 f 0.8459(3) 0.1020(7) 0.5812(3) 0.0180(7) 1 0
O3 O2- 8 f 0.6013(3) 0.8108(6) 0.5404(2) 0.0168(7) 1 0
O4 O2- 8 f 0.6740(4) 0.9128(7) 0.7348(3) 0.0249(8) 1 0
loop_
_atom_site_aniso_label
_atom_site_aniso_type_symbol
_atom_site_aniso_U_11
_atom_site_aniso_U_22
_atom_site_aniso_U_33
_atom_site_aniso_U_12
_atom_site_aniso_U_13
_atom_site_aniso_U_23
Mo1 Mo6+ 0.0100(3) 0.0091(3) 0.0095(3) 0.00035(12) -0.00039(14) 0.00001(12)
Ag1 Ag1+ 0.0298(5) 0.0227(5) 0.0116(4) 0. 0.0044(3) 0.
Na1 Na1+ 0.0298(5) 0.0227(5) 0.0116(4) 0. 0.0044(3) 0.
Fe1 Fe3+ 0.0135(5) 0.0141(5) 0.0138(5) 0.0005(3) -0.0009(3) -0.0013(3)
O1 O2- 0.0173(14) 0.0155(15) 0.0109(14) 0.0039(12) -0.0028(11) -0.0011(12)
O2 O2- 0.0112(14) 0.0208(17) 0.0220(16) 0.0001(13) 0.0030(12) -0.0076(14)
O3 O2- 0.0155(14) 0.0112(15) 0.0238(16) -0.0010(13) -0.0031(12) -0.0041(13)
O4 O2- 0.0342(19) 0.0241(19) 0.0163(17) -0.0013(16) -0.0025(14) 0.0070(15)
#End of TTdata_252420-ICSD