
#(C) 2019 by FIZ Karlsruhe - Leibniz Institute for Information Infrastructure.  All rights reserved.
data_252526-ICSD
_database_code_ICSD 252526
_audit_creation_date 2016-08-01
_chemical_name_systematic 'Disodium zinc hexathiodigermanate(IV)'
_chemical_formula_structural 'Na2 Zn Ge2 S6'
_chemical_formula_sum 'Ge2 Na2 S6 Zn1'
_chemical_name_structure_type Na2CdGe2S6
_exptl_crystal_density_diffrn 2.95
_cell_measurement_temperature 296.
_publ_section_title

;
Na2 Zn Ge2 S6: a new infrared nonlinear optical material with good balance
between large second-harmonic generation response and high laser damage
threshold
;
loop_
_citation_id
_citation_journal_full
_citation_year
_citation_journal_volume
_citation_page_first
_citation_page_last
_citation_journal_id_ASTM
primary 'Journal of the American Chemical Society' 2016 138 7422 7428 JACSAT
loop_
_publ_author_name
'Li, Guangmao'
'Wu, Kui'
'Liu, Qiong'
'Yang, Zhihua'
'Pan, Shilie'
_cell_length_a 7.284(9)
_cell_length_b 12.346(15)
_cell_length_c 11.447(14)
_cell_angle_alpha 90
_cell_angle_beta 100.627(13)
_cell_angle_gamma 90
_cell_volume 1011.75
_cell_formula_units_Z 4
_symmetry_space_group_name_H-M 'C 1 c 1'
_symmetry_Int_Tables_number 9
_refine_ls_R_factor_all 0.0374
loop_
_symmetry_equiv_pos_site_id
_symmetry_equiv_pos_as_xyz
1 'x, -y, z+1/2'
2 'x, y, z'
3 'x+1/2, -y+1/2, z+1/2'
4 'x+1/2, y+1/2, z'
loop_
_atom_type_symbol
_atom_type_oxidation_number
Ge4+ 4
Zn2+ 2
Na1+ 1
S2- -2
loop_
_atom_site_label
_atom_site_type_symbol
_atom_site_symmetry_multiplicity
_atom_site_Wyckoff_symbol
_atom_site_fract_x
_atom_site_fract_y
_atom_site_fract_z
_atom_site_B_iso_or_equiv
_atom_site_occupancy
_atom_site_attached_hydrogens
Ge1 Ge4+ 4 a 0.21273(13) 0.52320(9) 0.65576(9) 0.0144(3) 1 0
Ge2 Ge4+ 4 a -0.11576(15) 0.14109(9) 0.40666(10) 0.0154(3) 1 0
Zn1 Zn2+ 4 a 0.00779(16) 0.25593(11) 0.68341(11) 0.0193(3) 1 0
Na1 Na1+ 4 a 0.4478(8) 0.3004(5) 0.5189(5) 0.0464(15) 1 0
Na2 Na1+ 4 a 0.3417(8) -0.0095(5) 0.3874(6) 0.0557(17) 1 0
S1 S2- 4 a 0.1378(4) 0.1672(3) 0.5359(2) 0.0212(6) 1 0
S2 S2- 4 a -0.0510(4) 0.4422(2) 0.6644(2) 0.0211(6) 1 0
S3 S2- 4 a 0.2119(4) 0.6918(2) 0.7066(3) 0.0192(6) 1 0
S4 S2- 4 a -0.0301(4) 0.0686(2) 0.2448(2) 0.0192(6) 1 0
S5 S2- 4 a -0.2977(4) 0.2810(2) 0.3663(2) 0.0221(7) 1 0
S6 S2- 4 a -0.2661(4) -0.0021(3) 0.4651(2) 0.0237(7) 1 0
loop_
_atom_site_aniso_label
_atom_site_aniso_type_symbol
_atom_site_aniso_U_11
_atom_site_aniso_U_22
_atom_site_aniso_U_33
_atom_site_aniso_U_12
_atom_site_aniso_U_13
_atom_site_aniso_U_23
Ge1 Ge4+ 0.0150(6) 0.0127(6) 0.0152(6) -0.0003(5) 0.0017(4) 0.0002(5)
Ge2 Ge4+ 0.0140(5) 0.0175(6) 0.0139(5) 0.0010(5) 0.0001(4) -0.0011(5)
Zn1 Zn2+ 0.0200(7) 0.0193(7) 0.0174(6) -0.0043(6) 0.0007(5) 0.0002(6)
Na1 Na1+ 0.041(3) 0.037(3) 0.066(4) 0.007(3) 0.025(3) 0.001(3)
Na2 Na1+ 0.040(3) 0.052(4) 0.074(4) -0.014(3) 0.006(3) 0.012(3)
S1 S2- 0.0132(13) 0.0294(17) 0.0192(15) 0.0001(13) -0.0019(11) -0.0043(13)
S2 S2- 0.0169(14) 0.0178(15) 0.0278(16) -0.0018(12) 0.0019(12) 0.0021(13)
S3 S2- 0.0174(14) 0.0137(14) 0.0268(14) -0.0010(12) 0.0049(12) -0.0029(12)
S4 S2- 0.0156(14) 0.0217(16) 0.0206(14) -0.0051(12) 0.0043(11) -0.0067(12)
S5 S2- 0.0255(16) 0.0180(16) 0.0199(14) 0.0055(12) -0.0037(12) -0.0024(12)
S6 S2- 0.0312(16) 0.0228(17) 0.0170(14) -0.0051(14) 0.0040(12) 0.0018(12)
#End of TTdata_252526-ICSD