
#(C) 2019 by FIZ Karlsruhe - Leibniz Institute for Information Infrastructure.  All rights reserved.
data_252550-ICSD
_database_code_ICSD 252550
_audit_creation_date 2016-08-01
_chemical_name_systematic 'Sodium bismuthate(V) - beta'
_chemical_formula_structural 'Na Bi O3'
_chemical_formula_sum 'Bi1 Na1 O3'
_exptl_crystal_density_diffrn 6.56
_cell_measurement_temperature 295.
_publ_section_title 'High-pressure polymorph of NaBiO3'
loop_
_citation_id
_citation_journal_full
_citation_year
_citation_journal_volume
_citation_page_first
_citation_page_last
_citation_journal_id_ASTM
primary 'Inorganic Chemistry' 2016 55 5747 5749 INOCAJ
loop_
_publ_author_name
'Naa, Octavianti'
'Kumada, Nobuhiro'
'Miura, Akira'
'Takei, Takahiro'
'Azuma, Masaki'
'Kusano, Yoshihiro'
'Oka, Kengo'
_cell_length_a 9.968(1)
_cell_length_b 9.968(1)
_cell_length_c 3.2933(4)
_cell_angle_alpha 90.
_cell_angle_beta 90.
_cell_angle_gamma 120.
_cell_volume 283.39
_cell_formula_units_Z 4
_symmetry_space_group_name_H-M 'P -6'
_symmetry_Int_Tables_number 174
_refine_ls_R_factor_all 0.0175
loop_
_symmetry_equiv_pos_site_id
_symmetry_equiv_pos_as_xyz
1 '-x+y, -x, -z'
2 '-y, x-y, -z'
3 'x, y, -z'
4 '-x+y, -x, z'
5 '-y, x-y, z'
6 'x, y, z'
loop_
_atom_type_symbol
_atom_type_oxidation_number
Na1+ 1
Bi5+ 5
Na1+ 1
Bi5+ 5
Na1+ 1
O2- -2
loop_
_atom_site_label
_atom_site_type_symbol
_atom_site_symmetry_multiplicity
_atom_site_Wyckoff_symbol
_atom_site_fract_x
_atom_site_fract_y
_atom_site_fract_z
_atom_site_B_iso_or_equiv
_atom_site_occupancy
_atom_site_attached_hydrogens
Na1 Na1+ 1 d 0.3333 0.6667 0.5 6(5) 1. 0
Na2 Na1+ 1 e 0.6667 0.3333 0 8(6) 1. 0
Bi1 Bi5+ 3 k 0.357(1) 0.011(1) 0.5 1.7(2) 0.667 0
Na3 Na1+ 3 k 0.357(1) 0.011(1) 0.5 1.7(2) 0.333 0
Bi2 Bi5+ 3 j -0.001(2) 0.6648(9) 0 0.11(8) 0.667 0
Na4 Na1+ 3 j -0.001(2) 0.6648(9) 0 0.11(8) 0.333 0
O1 O2- 3 j 0.33(1) 0.12(1) 0 1.5 1. 0
O2 O2- 3 k 0.55(1) 0.39(1) 0.5 1.5 1. 0
O3 O2- 3 j 0.10(1) 0.55(1) 0 1.5 1. 0
O4 O2- 3 k 0.11(1) 0.80(1) 0.5 1.5 1. 0
#End of TTdata_252550-ICSD