
#(C) 2019 by FIZ Karlsruhe - Leibniz Institute for Information Infrastructure.  All rights reserved.
data_252701-ICSD
_database_code_ICSD 252701
_audit_creation_date 2016-08-01
_audit_update_record 2018-02-01
_chemical_name_systematic 'Tetrasodium cobalt hexa(arsenate)'
_chemical_formula_structural 'Na4 Co7 (As O4)6'
_chemical_formula_sum 'As6 Co7 Na4 O24'
_exptl_crystal_density_diffrn 4.36
_cell_measurement_temperature 293.
_publ_section_title

;
Synthesis, crystal structure, electrical properties, and sodium transport
pathways of the new arsenate Na4 Co7 (As O4)6
;
loop_
_citation_id
_citation_journal_full
_citation_year
_citation_journal_volume
_citation_page_first
_citation_page_last
_citation_journal_id_ASTM
primary 'Journal of Solid State Chemistry' 2016 239 8 16 JSSCBI
loop_
_publ_author_name
'Ben Smida, Youssef'
'Marzouki, Riadh'
'Georges, Samuel'
'Kutteh, Ramzi'
'Avdeev, Maxim'
'Guesmi, Abderrahmen'
'Zid, Mohamed Faouzi'
_cell_length_a 10.7098(10)
_cell_length_b 14.7837(10)
_cell_length_c 6.6845(7)
_cell_angle_alpha 90.
_cell_angle_beta 105.545(9)
_cell_angle_gamma 90.
_cell_volume 1019.64
_cell_formula_units_Z 2
_symmetry_space_group_name_H-M 'C 1 2/m 1'
_symmetry_Int_Tables_number 12
_refine_ls_R_factor_all 0.0203
loop_
_symmetry_equiv_pos_site_id
_symmetry_equiv_pos_as_xyz
1 '-x, y, -z'
2 '-x, -y, -z'
3 'x, -y, z'
4 'x, y, z'
5 '-x+1/2, y+1/2, -z'
6 '-x+1/2, -y+1/2, -z'
7 'x+1/2, -y+1/2, z'
8 'x+1/2, y+1/2, z'
loop_
_atom_type_symbol
_atom_type_oxidation_number
As5+ 5
Co2+ 2
Na1+ 1
O2- -2
loop_
_atom_site_label
_atom_site_type_symbol
_atom_site_symmetry_multiplicity
_atom_site_Wyckoff_symbol
_atom_site_fract_x
_atom_site_fract_y
_atom_site_fract_z
_atom_site_B_iso_or_equiv
_atom_site_occupancy
_atom_site_attached_hydrogens
As1 As5+ 8 j 0.09877(3) 0.18262(2) 0.29219(5) 0.00691(12) 1 0
As2 As5+ 4 i 0.67251(4) 0. 0.92814(8) 0.00895(14) 1 0
Co1 Co2+ 8 j 0.82052(4) 0.18195(3) 0.18125(7) 0.00716(13) 1 0
Co2 Co2+ 2 a 0. 0. 0. 0.0088(2) 1 0
Co3 Co2+ 4 g 0.5 0.16184(5) 0. 0.01281(17) 1 0
Na1 Na1+ 8 j 0.0794(3) 0.3872(2) 0.4958(5) 0.0217(7) 0.5 0
Na2 Na1+ 4 i 0.3168(4) 0. 0.5729(7) 0.0237(10) 0.5 0
Na3 Na1+ 4 i 0.0574(5) 0. 0.5138(7) 0.0293(12) 0.5 0
O1 O2- 8 j 0.9859(2) 0.09905(17) 0.2170(3) 0.0094(5) 1 0
O2 O2- 8 j 0.1878(2) 0.20997(18) 0.1267(4) 0.0132(5) 1 0
O3 O2- 4 i 0.5453(3) 0. 0.7212(5) 0.0167(8) 1 0
O4 O2- 8 j 0.9953(2) 0.27282(18) 0.2689(4) 0.0115(5) 1 0
O5 O2- 8 j 0.1943(2) 0.15681(19) 0.5258(3) 0.0122(5) 1 0
O6 O2- 4 i 0.8078(3) 0. 0.8512(6) 0.0167(8) 1 0
O7 O2- 8 j 0.6658(2) 0.90851(18) 0.0810(4) 0.0118(5) 1 0
loop_
_atom_site_aniso_label
_atom_site_aniso_type_symbol
_atom_site_aniso_U_11
_atom_site_aniso_U_22
_atom_site_aniso_U_33
_atom_site_aniso_U_12
_atom_site_aniso_U_13
_atom_site_aniso_U_23
As1 As5+ 0.00678(18) 0.00518(19) 0.00795(18) -0.00050(12) 0.00059(13)
0.00168(12)
As2 As5+ 0.0070(2) 0.0034(2) 0.0148(2) 0. 0.00008(17) 0.
Co1 Co2+ 0.0078(2) 0.0059(2) 0.0075(2) 0.00076(17) 0.00148(16) 0.00048(16)
Co2 Co2+ 0.0081(4) 0.0045(4) 0.0136(4) 0. 0.0027(3) 0.
Co3 Co2+ 0.0126(3) 0.0102(4) 0.0169(3) 0. 0.0061(3) 0.
Na1 Na1+ 0.0257(16) 0.0136(16) 0.0214(15) 0.0039(14) -0.0014(12) -0.0058(13)
Na2 Na1+ 0.021(2) 0.030(3) 0.019(2) 0. 0.0043(17) 0.
Na3 Na1+ 0.061(3) 0.009(2) 0.017(2) 0. 0.008(3) 0.
O1 O2- 0.0087(10) 0.0060(13) 0.0135(11) -0.0016(10) 0.0029(9) -0.0003(10)
O2 O2- 0.0184(12) 0.0143(13) 0.0083(10) -0.0102(11) 0.0060(9) -0.0030(10)
O3 O2- 0.0123(16) 0.016(2) 0.0166(17) 0. -0.0055(14) 0.
O4 O2- 0.0124(11) 0.0061(13) 0.0143(11) 0.0015(10) 0.0003(9) 0.0007(10)
O5 O2- 0.0109(11) 0.0167(14) 0.0075(11) 0.0029(11) -0.0002(9) 0.0026(11)
O6 O2- 0.0099(15) 0.0150(19) 0.0262(19) 0. 0.0065(15) 0.
O7 O2- 0.0126(11) 0.0053(12) 0.0157(12) 0.0020(10) 0.0007(9) 0.0022(10)
#End of TTdata_252701-ICSD