
#(C) 2019 by FIZ Karlsruhe - Leibniz Institute for Information Infrastructure.  All rights reserved.
data_252798-ICSD
_database_code_ICSD 252798
_audit_creation_date 2017-08-01
_chemical_name_systematic 'Sodium europium heyptaoxo-dihydroxo-trisilicate'
_chemical_formula_structural 'Na Eu Si3 O7 (O H)2'
_chemical_formula_sum 'H2 Eu1 Na1 O9 Si3'
_exptl_crystal_density_diffrn 3.45
_cell_measurement_temperature 293.
_publ_section_title

;
Synthesis, crystal structure, and luminescence properties of a new europium
silicate
;
loop_
_citation_id
_citation_journal_full
_citation_year
_citation_journal_volume
_citation_page_first
_citation_page_last
_citation_journal_id_ASTM
primary 'Dalton Transactions' 2016 45 9631 9635 DTARAF
loop_
_publ_author_name
'Liu, Wei'
'Ji, Ying'
'Wang, Ying'
'Sun, Qiushi'
'Zhao, Xudong'
'Liu, Xiaoyang'
'Jia, Xiaopeng'
_cell_length_a 7.056(3)
_cell_length_b 7.075(3)
_cell_length_c 8.029(3)
_cell_angle_alpha 102.381(5)
_cell_angle_beta 95.387(6)
_cell_angle_gamma 90.552(6)
_cell_volume 389.58
_cell_formula_units_Z 2
_symmetry_space_group_name_H-M 'P -1'
_symmetry_Int_Tables_number 2
_refine_ls_R_factor_all 0.0504
loop_
_symmetry_equiv_pos_site_id
_symmetry_equiv_pos_as_xyz
1 '-x, -y, -z'
2 'x, y, z'
loop_
_atom_type_symbol
_atom_type_oxidation_number
Eu3+ 3
Si4+ 4
O2- -2
H1+ 1
O2- -2
H1+ 1
O2- -2
Na1+ 1
Eu3+ 3
loop_
_atom_site_label
_atom_site_type_symbol
_atom_site_symmetry_multiplicity
_atom_site_Wyckoff_symbol
_atom_site_fract_x
_atom_site_fract_y
_atom_site_fract_z
_atom_site_B_iso_or_equiv
_atom_site_occupancy
_atom_site_attached_hydrogens
Eu1 Eu3+ 2 i 0.35026(12) 0.40327(12) 0.14498(11) 0.0094(2) 0.6 0
Si1 Si4+ 2 i 0.8416(4) 0.4016(4) 0.2197(3) 0.0090(5) 1 0
Si2 Si4+ 2 i 0.8414(4) -0.0400(4) 0.2176(4) 0.0114(6) 1 0
Si3 Si4+ 2 i 0.6510(4) 0.7330(4) 0.4469(3) 0.0094(5) 1 0
O1 O2- 2 i 0.6755(11) 0.3883(12) 0.0667(10) 0.0217(17) 1 0
O2 O2- 2 i 1.0419(10) 0.4841(11) 0.1808(10) 0.0174(16) 1 0
H1 H1+ 2 i 1.1908 0.4144 0.1983 0.026 1 0
O3 O2- 2 i 0.7807(10) 0.5385(11) 0.3980(9) 0.0145(15) 1 0
O4 O2- 2 i 0.8807(11) 0.1920(10) 0.2693(10) 0.0159(15) 1 0
O5 O2- 2 i 1.0459(11) -0.1394(12) 0.1844(11) 0.0221(17) 1 0
O6 O2- 2 i 0.6845(11) -0.1060(11) 0.0621(10) 0.0178(16) 1 0
O7 O2- 2 i 0.7785(11) 0.9072(11) 0.3959(9) 0.0172(16) 1 0
H2 H1+ 2 i 0.702 0.9464 0.3248 0.026 1 0
O8 O2- 2 i 0.6378(11) 0.7805(11) 0.6485(9) 0.0176(16) 1 0
O9 O2- 2 i 0.4508(10) 0.6996(11) 0.3318(9) 0.0148(15) 1 0
Na1 Na1+ 2 i 0.1604(7) 0.7360(8) 0.4401(6) 0.0262(11) 1 0
Eu2 Eu3+ 2 i 0.64020(19) 1.0792(2) 0.84642(17) 0.0162(3) 0.4 0
loop_
_atom_site_aniso_label
_atom_site_aniso_type_symbol
_atom_site_aniso_U_11
_atom_site_aniso_U_22
_atom_site_aniso_U_33
_atom_site_aniso_U_12
_atom_site_aniso_U_13
_atom_site_aniso_U_23
Eu1 Eu3+ 0.0096(4) 0.0090(4) 0.0094(4) 0.0000(3) 0.0008(3) 0.0013(3)
Si1 Si4+ 0.0081(12) 0.0107(13) 0.0090(13) 0.0009(10) 0.0010(10) 0.0040(10)
Si2 Si4+ 0.0123(13) 0.0100(13) 0.0130(14) -0.0003(10) 0.0011(10) 0.0045(10)
Si3 Si4+ 0.0110(13) 0.0093(12) 0.0086(13) 0.0002(10) 0.0007(10) 0.0033(10)
O1 O2- 0.020(4) 0.031(5) 0.010(4) -0.001(3) -0.004(3) -0.001(3)
O2 O2- 0.014(4) 0.019(4) 0.022(4) 0.001(3) 0.005(3) 0.009(3)
O3 O2- 0.013(4) 0.017(4) 0.013(4) 0.004(3) 0.002(3) 0.003(3)
O4 O2- 0.019(4) 0.011(4) 0.018(4) 0.001(3) -0.004(3) 0.005(3)
O5 O2- 0.011(4) 0.024(4) 0.032(5) 0.004(3) 0.007(3) 0.004(3)
O6 O2- 0.018(4) 0.021(4) 0.016(4) -0.001(3) -0.001(3) 0.008(3)
O7 O2- 0.022(4) 0.016(4) 0.014(4) -0.005(3) 0.002(3) 0.006(3)
O8 O2- 0.029(4) 0.018(4) 0.007(4) 0.003(3) 0.008(3) 0.004(3)
O9 O2- 0.006(3) 0.025(4) 0.012(4) 0.002(3) 0.000(3) 0.001(3)
Na1 Na1+ 0.025(2) 0.040(3) 0.015(2) 0.001(2) 0.0072(18) 0.008(2)
Eu2 Eu3+ 0.0171(7) 0.0162(7) 0.0153(7) -0.0030(5) 0.0007(5) 0.0043(5)
#End of TTdata_252798-ICSD