
#(C) 2019 by FIZ Karlsruhe - Leibniz Institute for Information Infrastructure.  All rights reserved.
data_252831-ICSD
_database_code_ICSD 252831
_audit_creation_date 2017-08-01
_chemical_name_systematic 'Tetrasodium copper(II) tris[molybdate(VI)]'
_chemical_formula_structural 'Na4 Cu (Mo O4)3'
_chemical_formula_sum 'Cu1 Mo3 Na4 O12'
_exptl_crystal_density_diffrn 3.69
_cell_measurement_temperature 298.
_publ_section_title

;
Synthesis, crystal structure and charge-distribution validation of
beta-Na4Cu(MoO4)3 adopting the alluadite structure-type
;
loop_
_citation_id
_citation_journal_full
_citation_year
_citation_journal_volume
_citation_page_first
_citation_page_last
_citation_journal_id_ASTM
primary 'Acta Crystallographica, Section E: Crystallographic Communications'
2016 72 1103 1107 ACSECI
loop_
_publ_author_name
'Dridi, Wassim'
'Zid, Mohamed Faouzi'
_cell_length_a 12.5318(9)
_cell_length_b 13.8181(9)
_cell_length_c 7.1159(7)
_cell_angle_alpha 90
_cell_angle_beta 111.95(2)
_cell_angle_gamma 90
_cell_volume 1142.9
_cell_formula_units_Z 4
_symmetry_space_group_name_H-M 'C 1 2/c 1'
_symmetry_Int_Tables_number 15
_refine_ls_R_factor_all 0.0229
loop_
_symmetry_equiv_pos_site_id
_symmetry_equiv_pos_as_xyz
1 'x, -y, z+1/2'
2 '-x, -y, -z'
3 '-x, y, -z+1/2'
4 'x, y, z'
5 'x+1/2, -y+1/2, z+1/2'
6 '-x+1/2, -y+1/2, -z'
7 '-x+1/2, y+1/2, -z+1/2'
8 'x+1/2, y+1/2, z'
loop_
_atom_type_symbol
_atom_type_oxidation_number
Mo6+ 6
Cu2+ 2
Na1+ 1
O2- -2
loop_
_atom_site_label
_atom_site_type_symbol
_atom_site_symmetry_multiplicity
_atom_site_Wyckoff_symbol
_atom_site_fract_x
_atom_site_fract_y
_atom_site_fract_z
_atom_site_B_iso_or_equiv
_atom_site_occupancy
_atom_site_attached_hydrogens
Mo1 Mo6+ 8 f 0.72812(2) 0.10879(2) 0.11920(4) 0.01991(12) 1 0
Mo2 Mo6+ 8 f 0.48085(7) 0.28610(4) 0.2400(3) 0.0133(3) 0.5 0
Cu1 Cu2+ 8 f 0.70643(5) 0.16100(5) 0.61691(9) 0.01741(16) 0.5 0
Na1 Na1+ 8 f 0.70643(5) 0.16100(5) 0.61691(9) 0.01741(16) 0.5 0
Na2 Na1+ 4 e 0.5 0.0169(3) 0.25 0.0482(8) 1 0
Na3 Na1+ 4 a 0. 0. 0. 0.0299(5) 1 0
Na4 Na1+ 4 e 0.5 0.26934(16) 0.75 0.0219(4) 1 0
O1 O2- 8 f 0.8745(2) 0.0849(2) 0.1859(4) 0.0292(6) 1 0
O2 O2- 8 f 0.6715(2) 0.1702(2) 0.8852(4) 0.0337(6) 1 0
O3 O2- 8 f 0.5390(2) 0.2147(2) 0.4714(4) 0.0247(6) 1 0
O4 O2- 8 f 0.3657(5) 0.3629(6) 0.2376(11) 0.0239(10) 0.5 0
O5 O2- 8 f 0.4153(5) 0.3707(6) 0.2551(11) 0.0239(10) 0.5 0
O6 O2- 8 f 0.6504(3) -0.0001(2) 0.0904(5) 0.0346(7) 1 0
O7 O2- 8 f 0.7095(3) 0.1754(2) 0.3178(5) 0.0373(7) 1 0
loop_
_atom_site_aniso_label
_atom_site_aniso_type_symbol
_atom_site_aniso_U_11
_atom_site_aniso_U_22
_atom_site_aniso_U_33
_atom_site_aniso_U_12
_atom_site_aniso_U_13
_atom_site_aniso_U_23
Mo1 Mo6+ 0.01593(17) 0.02069(18) 0.01973(18) 0.00034(10) 0.00275(11)
-0.00104(11)
Mo2 Mo6+ 0.0147(8) 0.0162(2) 0.0079(4) 0.0004(2) 0.0032(6) 0.0000(3)
Cu1 Cu2+ 0.0227(3) 0.0219(3) 0.0093(3) -0.0007(3) 0.0079(2) 0.0006(2)
Na1 Na1+ 0.0227(3) 0.0219(3) 0.0093(3) -0.0007(3) 0.0079(2) 0.0006(2)
Na2 Na1+ 0.0217(11) 0.098(3) 0.0203(11) 0. 0.0031(9) 0.
Na3 Na1+ 0.0397(12) 0.0224(10) 0.0179(9) -0.0013(10) -0.0004(9) -0.0006(9)
Na4 Na1+ 0.0225(9) 0.0270(11) 0.0189(9) 0. 0.0110(7) 0.
O1 O2- 0.0187(12) 0.0341(15) 0.0307(14) 0.0037(11) 0.0044(10) 0.0072(12)
O2 O2- 0.0268(14) 0.0330(16) 0.0327(15) 0.0083(12) 0.0011(12) 0.0017(13)
O3 O2- 0.0275(13) 0.0335(15) 0.0160(12) -0.0003(12) 0.0113(10) 0.0011(11)
O4 O2- 0.017(3) 0.0250(18) 0.0238(18) 0.005(3) 0.001(3) -0.0039(16)
O5 O2- 0.017(3) 0.0250(18) 0.0238(18) 0.005(3) 0.001(3) -0.0039(16)
O6 O2- 0.0357(15) 0.0279(14) 0.0410(17) -0.0059(13) 0.0152(13) 0.0005(13)
O7 O2- 0.0305(14) 0.0398(17) 0.0385(17) 0.0010(14) 0.0095(13) -0.0084(14)
#End of TTdata_252831-ICSD