
#(C) 2019 by FIZ Karlsruhe - Leibniz Institute for Information Infrastructure.  All rights reserved.
data_253457-ICSD
_database_code_ICSD 253457
_audit_creation_date 2017-08-01
_chemical_name_systematic 'Disodium iridate(IV)'
_chemical_formula_structural 'Na2 Ir O3'
_chemical_formula_sum 'Ir1 Na2 O3'
_chemical_name_structure_type Li5ReO6
_exptl_crystal_density_diffrn 7.04
_publ_section_title

;
Strong oxygen participation in the redox governing the structural and
electrochemical properties of Na-rich layered oxide Na2IrO3
;
loop_
_citation_id
_citation_journal_full
_citation_year
_citation_journal_volume
_citation_page_first
_citation_page_last
_citation_journal_id_ASTM
primary 'Chemistry of Materials' 2016 28 8278 8288 CMATEX
loop_
_publ_author_name
'Perez, Arnaud J.'
'Batuk, Dmitry'
'Saubanere, Matthieu'
'Rousse, Gwenaelle'
'Foix, Dominique'
'McCalla, Eric'
'Berg, Erik J.'
'Dugas, Romain'
'Bos, Karel H.W. van den'
'Doublet, Marie-Liesse'
'Gonbeau, Danielle'
'Abakumov, Artem M.'
'Tendeloo, Gustaaf van'
'Tarascon, Jean-Marie'
_cell_length_a 5.42699(14)
_cell_length_b 9.3969(2)
_cell_length_c 5.6062(1)
_cell_angle_alpha 90
_cell_angle_beta 108.6374(19)
_cell_angle_gamma 90
_cell_volume 270.9
_cell_formula_units_Z 4
_symmetry_space_group_name_H-M 'C 1 2/m 1'
_symmetry_Int_Tables_number 12
loop_
_symmetry_equiv_pos_site_id
_symmetry_equiv_pos_as_xyz
1 '-x, y, -z'
2 '-x, -y, -z'
3 'x, -y, z'
4 'x, y, z'
5 '-x+1/2, y+1/2, -z'
6 '-x+1/2, -y+1/2, -z'
7 'x+1/2, -y+1/2, z'
8 'x+1/2, y+1/2, z'
loop_
_atom_type_symbol
_atom_type_oxidation_number
O2- -2
Ir4+ 4
Na1+ 1
Ir4+ 4
Na1+ 1
loop_
_atom_site_label
_atom_site_type_symbol
_atom_site_symmetry_multiplicity
_atom_site_Wyckoff_symbol
_atom_site_fract_x
_atom_site_fract_y
_atom_site_fract_z
_atom_site_B_iso_or_equiv
_atom_site_occupancy
_atom_site_attached_hydrogens
O1 O2- 8 j 0.25727 0.31905 0.79441 0.0091 1. 0
O2 O2- 4 i 0.29161 0. 0.79347 0.0133 1. 0
Ir1 Ir4+ 4 g 0. 0.33397 0. 0.0088 0.878 0
Na1 Na1+ 4 g 0. 0.33397 0. 0.0088 0.122 0
Na2 Na1+ 2 a 0. 0. 0. . 0.756 0
Ir2 Ir4+ 2 a 0. 0. 0. . 0.244 0
Na3 Na1+ 4 h 0. 0.84168 0.5 0.0116 1. 0
Na4 Na1+ 2 d 0. 0.5 0.5 0.022 1. 0
#End of TTdata_253457-ICSD