
#(C) 2019 by FIZ Karlsruhe - Leibniz Institute for Information Infrastructure.  All rights reserved.
data_253459-ICSD
_database_code_ICSD 253459
_audit_creation_date 2017-08-01
_chemical_name_systematic 'Hemisodium iridate(V/VI)'
_chemical_formula_structural 'Na0.5 Ir O3'
_chemical_formula_sum 'Ir1 Na0.5 O3'
_exptl_crystal_density_diffrn 7.25
_publ_section_title

;
Strong oxygen participation in the redox governing the structural and
electrochemical properties of Na-rich layered oxide Na2IrO3
;
loop_
_citation_id
_citation_journal_full
_citation_year
_citation_journal_volume
_citation_page_first
_citation_page_last
_citation_journal_id_ASTM
primary 'Chemistry of Materials' 2016 28 8278 8288 CMATEX
loop_
_publ_author_name
'Perez, Arnaud J.'
'Batuk, Dmitry'
'Saubanere, Matthieu'
'Rousse, Gwenaelle'
'Foix, Dominique'
'McCalla, Eric'
'Berg, Erik J.'
'Dugas, Romain'
'Bos, Karel H.W. van den'
'Doublet, Marie-Liesse'
'Gonbeau, Danielle'
'Abakumov, Artem M.'
'Tendeloo, Gustaaf van'
'Tarascon, Jean-Marie'
_cell_length_a 5.2457(6)
_cell_length_b 9.0657(9)
_cell_length_c 4.8707(5)
_cell_angle_alpha 90
_cell_angle_beta 89.249(7)
_cell_angle_gamma 90
_cell_volume 231.61
_cell_formula_units_Z 4
_symmetry_space_group_name_H-M 'C 1 2/m 1'
_symmetry_Int_Tables_number 12
loop_
_symmetry_equiv_pos_site_id
_symmetry_equiv_pos_as_xyz
1 '-x, y, -z'
2 '-x, -y, -z'
3 'x, -y, z'
4 'x, y, z'
5 '-x+1/2, y+1/2, -z'
6 '-x+1/2, -y+1/2, -z'
7 'x+1/2, -y+1/2, z'
8 'x+1/2, y+1/2, z'
loop_
_atom_type_symbol
_atom_type_oxidation_number
O2- -2
Ir5+ 5.5
Na1+ 1
loop_
_atom_site_label
_atom_site_type_symbol
_atom_site_symmetry_multiplicity
_atom_site_Wyckoff_symbol
_atom_site_fract_x
_atom_site_fract_y
_atom_site_fract_z
_atom_site_B_iso_or_equiv
_atom_site_occupancy
_atom_site_attached_hydrogens
O1 O2- 8 j 0.319(2) 0.3082(8) 0.7534(15) 0.047 1. 0
O2 O2- 4 i 0.346(2) 0. 0.812(2) 0.029 1. 0
Ir1 Ir5+ 4 g 0. 0.3339(14) 0. 0.0401 1. 0
Na1 Na1+ 2 a 0. 0. 0. 1. 0. 0
Na2 Na1+ 4 h 0. 0.33798 0.5 1. 0. 0
Na3 Na1+ 2 c 0. 0. 0.5 0.01 1. 0
#End of TTdata_253459-ICSD