
#(C) 2019 by FIZ Karlsruhe - Leibniz Institute for Information Infrastructure.  All rights reserved.
data_253540-ICSD
_database_code_ICSD 253540
_audit_creation_date 2017-08-01
_chemical_name_systematic
'Trisodium divanadium(III) bis(orthophosphate) fluoride-2.5 oxide-0.5'
_chemical_formula_structural 'Na3 V2 (P O4)2 F2.5 O0.5'
_chemical_formula_sum 'F2.5 Na3 O8.5 P2 V2'
_exptl_crystal_density_diffrn 3.17
_publ_section_title

;
Battery relevant electrochemistry of Ag7Fe3(P2O7)4: contrasting contributions
from the redox chemistries of Ag+ and Fe3+
;
loop_
_citation_id
_citation_journal_full
_citation_year
_citation_journal_volume
_citation_page_first
_citation_page_last
_citation_journal_id_ASTM
primary 'Chemistry of Materials' 2016 28 7619 7628 CMATEX
loop_
_publ_author_name
'Zhang, Yiman'
'Kirshenbaum, Kevin C.'
'Marschilok, Amy C.'
'Takeuchi, Esther S.'
'Takeuchi, Kenneth J.'
_cell_length_a 9.0352(3)
_cell_length_b 9.0374(4)
_cell_length_c 10.6863(1)
_cell_angle_alpha 90.
_cell_angle_beta 90.
_cell_angle_gamma 90.
_cell_volume 872.59
_cell_formula_units_Z 4
_symmetry_space_group_name_H-M 'A m a m'
_symmetry_Int_Tables_number 63
_refine_ls_R_factor_all 0.0594
loop_
_symmetry_equiv_pos_site_id
_symmetry_equiv_pos_as_xyz
1 '-x+1/2, y, -z'
2 'x+1/2, -y, -z'
3 'x, y, -z'
4 '-x, -y, -z'
5 'x+1/2, -y, z'
6 '-x+1/2, y, z'
7 '-x, -y, z'
8 'x, y, z'
9 '-x+1/2, y+1/2, -z+1/2'
10 'x+1/2, -y+1/2, -z+1/2'
11 'x, y+1/2, -z+1/2'
12 '-x, -y+1/2, -z+1/2'
13 'x+1/2, -y+1/2, z+1/2'
14 '-x+1/2, y+1/2, z+1/2'
15 '-x, -y+1/2, z+1/2'
16 'x, y+1/2, z+1/2'
loop_
_atom_type_symbol
_atom_type_oxidation_number
V3+ 3.21
P5+ 5
O2- -2
F1- -1
O2- -2
Na1+ 1
loop_
_atom_site_label
_atom_site_type_symbol
_atom_site_symmetry_multiplicity
_atom_site_Wyckoff_symbol
_atom_site_fract_x
_atom_site_fract_y
_atom_site_fract_z
_atom_site_B_iso_or_equiv
_atom_site_occupancy
_atom_site_attached_hydrogens
V1 V3+ 8 g 0.25 0.2487(2) 0.1896(1) 0.59(1) 1. 0
P1 P5+ 8 e 0 0 0.2587(2) 0.43(1) 1. 0
O1 O2- 16 h 0.0874(4) 0.0981(4) 0.1677(2) 0.47(2) 1. 0
O2 O2- 16 h 0.0954(4) 0.4016(4) 0.1576(2) 0.47(2) 1. 0
F1 F1- 4 c 0.25 0.2488(6) 0 0.54(5) 1. 0
F2 F1- 8 g 0.25 0.7460(6) 0.1404(2) 1.48(3) 0.75 0
O3 O2- 8 g 0.25 0.7460(6) 0.1404(2) 1.48(3) 0.25 0
Na1 Na1+ 4 c 0.75 0.4852(8) 0 2.3(1) 0.88(1) 0
Na2 Na1+ 8 f 0.5242(7) 0.2255(6) 0 2.9(1) 0.71(1) 0
Na3 Na1+ 8 f 0.571(1) 0.141(2) 0 2.9(1) 0.23(1) 0
Na4 Na1+ 8 f 0.691(2) 0.042(2) 0 2.3(1) 0.16(1) 0
#End of TTdata_253540-ICSD