
#(C) 2019 by FIZ Karlsruhe - Leibniz Institute for Information Infrastructure.  All rights reserved.
data_253580-ICSD
_database_code_ICSD 253580
_audit_creation_date 2017-08-01
_chemical_name_systematic 'Trisodium iron(II) decaoxo-pentaborate'
_chemical_formula_structural 'Na3 Fe B5 O10'
_chemical_formula_sum 'B5 Fe1 Na3 O10'
_chemical_name_structure_type Na3MgB5O10
_exptl_crystal_density_diffrn 2.55
_cell_measurement_temperature 273.
_publ_section_title

;
Synthesis, structure, and electrochemical properties of Na3MB5O10 (M = Fe, Co)
containing M2+ in tetrahedral coordination
;
loop_
_citation_id
_citation_journal_full
_citation_year
_citation_journal_volume
_citation_page_first
_citation_page_last
_citation_journal_id_ASTM
primary 'Inorganic Chemistry' 2016 55 12775 12782 INOCAJ
loop_
_publ_author_name
'Strauss, Florian'
'Rousse, Gwenaelle'
'Sougrati, Moulay Tahar'
'Dalla Corte, Daniel Alves'
'Courty, Matthieu'
'Dominko, Robert'
'Tarascon, Jean-Marie'
_cell_length_a 7.95493(5)
_cell_length_b 12.30669(9)
_cell_length_c 18.03978(13)
_cell_angle_alpha 90.
_cell_angle_beta 90.
_cell_angle_gamma 90.
_cell_volume 1766.07
_cell_formula_units_Z 8
_symmetry_space_group_name_H-M 'P b c a'
_symmetry_Int_Tables_number 61
_refine_ls_R_factor_all 0.0627
loop_
_symmetry_equiv_pos_site_id
_symmetry_equiv_pos_as_xyz
1 'x+1/2, y, -z+1/2'
2 'x, -y+1/2, z+1/2'
3 '-x+1/2, y+1/2, z'
4 '-x, -y, -z'
5 '-x+1/2, -y, z+1/2'
6 '-x, y+1/2, -z+1/2'
7 'x+1/2, -y+1/2, -z'
8 'x, y, z'
loop_
_atom_type_symbol
_atom_type_oxidation_number
Na1+ 1
Fe2+ 2
B3+ 3
O2- -2
loop_
_atom_site_label
_atom_site_type_symbol
_atom_site_symmetry_multiplicity
_atom_site_Wyckoff_symbol
_atom_site_fract_x
_atom_site_fract_y
_atom_site_fract_z
_atom_site_B_iso_or_equiv
_atom_site_occupancy
_atom_site_attached_hydrogens
Na1 Na1+ 8 c 0.8293(5) 0.4179(4) 0.0800(3) 0.0249(8) 1. 0
Na2 Na1+ 8 c 0.6936(5) 0.6544(3) 0.2547(3) 0.0249(8) 1. 0
Na3 Na1+ 8 c 0.7908(5) 0.4278(4) 0.4330(2) 0.0249(8) 1. 0
Fe1 Fe2+ 8 c 0.4135(3) 0.68078(13) 0.09532(9) 0.0163(5) 1. 0
B1 B3+ 8 c 0.414(2) 0.1491(10) 0.0758(7) 0.0140(17) 1. 0
B2 B3+ 8 c 0.7216(19) 0.1756(12) 0.0763(7) 0.0140(17) 1. 0
B3 B3+ 8 c 0.5457(17) 0.2864(10) 0.1604(7) 0.0140(17) 1. 0
B4 B3+ 8 c 0.5577(17) 0.3620(11) 0.3004(7) 0.0140(17) 1. 0
B5 B3+ 8 c 0.4911(16) 0.4776(10) 0.1873(7) 0.0140(17) 1. 0
O1 O2- 8 c 0.2900(10) 0.1182(6) 0.0430(4) 0.0194(7) 1. 0
O2 O2- 8 c 0.4237(12) 0.2192(5) 0.1266(3) 0.0194(7) 1. 0
O3 O2- 8 c 0.5902(11) 0.1222(5) 0.0472(4) 0.0194(7) 1. 0
O4 O2- 8 c 0.7243(9) 0.2498(6) 0.1277(3) 0.0194(7) 1. 0
O5 O2- 8 c 0.8771(9) 0.1416(5) 0.0435(3) 0.0194(7) 1. 0
O6 O2- 8 c 0.5657(8) 0.2707(5) 0.2427(4) 0.0194(7) 1. 0
O7 O2- 8 c 0.5371(8) 0.3980(5) 0.1466(3) 0.0194(7) 1. 0
O8 O2- 8 c 0.4970(8) 0.4514(5) 0.2724(4) 0.0194(7) 1. 0
O9 O2- 8 c 0.5762(10) 0.3344(5) 0.3713(3) 0.0194(7) 1. 0
O10 O2- 8 c 0.4103(9) 0.5690(5) 0.1844(3) 0.0194(7) 1. 0
#End of TTdata_253580-ICSD