
#(C) 2019 by FIZ Karlsruhe - Leibniz Institute for Information Infrastructure.  All rights reserved.
data_253541-ICSD
_database_code_ICSD 253541
_audit_creation_date 2017-08-01
_chemical_name_systematic
'Trisodium divanadium(III) bis(orthophosphate) fluoride-2.5 oxide-0.5'
_chemical_formula_structural 'Na3 V2 (P O4)2 F2.5 O0.5'
_chemical_formula_sum 'F2.5 Na3 O8.5 P2 V2'
_exptl_crystal_density_diffrn 3.17
_publ_section_title

;
Battery relevant electrochemistry of Ag7Fe3(P2O7)4: contrasting contributions
from the redox chemistries of Ag+ and Fe3+
;
loop_
_citation_id
_citation_journal_full
_citation_year
_citation_journal_volume
_citation_page_first
_citation_page_last
_citation_journal_id_ASTM
primary 'Chemistry of Materials' 2016 28 7619 7628 CMATEX
loop_
_publ_author_name
'Zhang, Yiman'
'Kirshenbaum, Kevin C.'
'Marschilok, Amy C.'
'Takeuchi, Esther S.'
'Takeuchi, Kenneth J.'
_cell_length_a 9.0362(1)
_cell_length_b 9.0362(1)
_cell_length_c 10.6863(1)
_cell_angle_alpha 90.
_cell_angle_beta 90.
_cell_angle_gamma 90.
_cell_volume 872.57
_cell_formula_units_Z 4
_symmetry_space_group_name_H-M 'P 42/m n m'
_symmetry_Int_Tables_number 136
_refine_ls_R_factor_all 0.0668
loop_
_symmetry_equiv_pos_site_id
_symmetry_equiv_pos_as_xyz
1 '-y+1/2, x+1/2, -z+1/2'
2 'y+1/2, -x+1/2, -z+1/2'
3 'y, x, -z'
4 '-y, -x, -z'
5 'y+1/2, -x+1/2, z+1/2'
6 '-y+1/2, x+1/2, z+1/2'
7 '-y, -x, z'
8 'y, x, z'
9 'x+1/2, -y+1/2, -z+1/2'
10 '-x+1/2, y+1/2, -z+1/2'
11 'x, y, -z'
12 '-x, -y, -z'
13 '-x+1/2, y+1/2, z+1/2'
14 'x+1/2, -y+1/2, z+1/2'
15 '-x, -y, z'
16 'x, y, z'
loop_
_atom_type_symbol
_atom_type_oxidation_number
V3+ 3.28
P5+ 5
O2- -2
F1- -1
O2- -2
Na1+ 1
loop_
_atom_site_label
_atom_site_type_symbol
_atom_site_symmetry_multiplicity
_atom_site_Wyckoff_symbol
_atom_site_fract_x
_atom_site_fract_y
_atom_site_fract_z
_atom_site_B_iso_or_equiv
_atom_site_occupancy
_atom_site_attached_hydrogens
V1 V3+ 8 j 0.2486(2) 0.2486(2) 0.1900(1) 0.61(1) 1. 0
P1 P5+ 4 d 0 0.5 0.25 0.52(1) 1. 0
P2 P5+ 4 e 0 0 0.2562(3) 0.52(1) 1. 0
O1 O2- 16 k 0.0963(5) 0.4066(5) 0.1637(4) 0.57(2) 1. 0
O2 O2- 8 j 0.0926(5) 0.0926(5) 0.1505(6) 0.57(2) 1. 0
O3 O2- 8 j 0.4024(5) 0.4024(5) 0.1756(6) 0.57(5) 1. 0
F1 F1- 4 f 0.2477(5) 0.2477(5) 0 0.59(3) 1. 0
F2 F1- 8 j 0.2482(5) 0.2482(5) 0.3599(2) 0.59(3) 0.75 0
O4 O2- 8 j 0.2482(5) 0.2482(5) 0.3599(2) 0.59(3) 0.25 0
Na1 Na1+ 8 i 0.5218(6) 0.2273(5) 0 2.9(2) 0.83(1) 0
Na2 Na1+ 8 i 0.776(1) 0.025(1) 0 2.2(3) 0.31(1) 0
Na3 Na1+ 8 i 0.853(2) 0.072(1) 0 1.9(3) 0.33(1) 0
#End of TTdata_253541-ICSD