
#(C) 2019 by FIZ Karlsruhe - Leibniz Institute for Information Infrastructure.  All rights reserved.
data_253666-ICSD
_database_code_ICSD 253666
_audit_creation_date 2017-08-01
_chemical_name_systematic
'Hexasodium bis(uranyl) tetrakis(sulfate) tetrahydrate'
_chemical_formula_structural 'Na6 ((U O2) (S O4)4) (H2 O)4'
_chemical_formula_sum 'H8 Na6 O22 S4 U1'
_exptl_crystal_density_diffrn 2.93
_cell_measurement_temperature 293.
_publ_section_title

;
The crystal structure of Na6[(UO2)(SO4)4](H2O)4: X-ray and Raman spectroscopy
study
;
loop_
_citation_id
_citation_journal_full
_citation_year
_citation_journal_volume
_citation_page_first
_citation_page_last
_citation_journal_id_ASTM
primary 'Canadian Mineralogist' 2016 54 5 20 CAMIA6
loop_
_publ_author_name
'Plasil, Jakub'
'Meisser, Nicolas'
'Cejka, Jiri'
_cell_length_a 9.8005(3)
_cell_length_b 9.7183(3)
_cell_length_c 20.8263(6)
_cell_angle_alpha 90
_cell_angle_beta 98.794(2)
_cell_angle_gamma 90
_cell_volume 1960.26
_cell_formula_units_Z 4
_symmetry_space_group_name_H-M 'P 1 21/c 1'
_symmetry_Int_Tables_number 14
_refine_ls_R_factor_all 0.0211
loop_
_symmetry_equiv_pos_site_id
_symmetry_equiv_pos_as_xyz
1 'x, -y+1/2, z+1/2'
2 '-x, -y, -z'
3 '-x, y+1/2, -z+1/2'
4 'x, y, z'
loop_
_atom_type_symbol
_atom_type_oxidation_number
U6+ 6
S6+ 6
O2- -2
Na1+ 1
O2- -2
S6+ 6
O2- -2
Na1+ 1
O2- -2
Na1+ 1
O2- -2
Na1+ 1
O2- -2
Na1+ 1
O2- -2
H1+ 1
loop_
_atom_site_label
_atom_site_type_symbol
_atom_site_symmetry_multiplicity
_atom_site_Wyckoff_symbol
_atom_site_fract_x
_atom_site_fract_y
_atom_site_fract_z
_atom_site_B_iso_or_equiv
_atom_site_occupancy
_atom_site_attached_hydrogens
U1 U6+ 4 e -0.003999(14) 0.202294(15) 0.102501(6) 0.01250(5) 1 0
S1 S6+ 4 e -0.16747(10) 0.54663(11) 0.11630(5) 0.0162(3) 1 0
S2 S6+ 4 e -0.22606(10) -0.00982(11) 0.12470(5) 0.0144(3) 1 0
S3 S6+ 4 e 0.26729(10) 0.45862(11) 0.10618(5) 0.0141(3) 1 0
O1 O2- 4 e 0.0503(3) 0.2259(3) 0.18670(13) 0.0217(10) 1 0
O2 O2- 4 e -0.0563(3) 0.1847(3) 0.01755(13) 0.0249(10) 1 0
Na1 Na1+ 4 e -0.09539(17) 0.19823(18) -0.10243(8) 0.0231(5) 1 0
O3 O2- 4 e -0.0767(3) -0.0314(3) 0.12034(13) 0.0209(10) 1 0
S4 S6+ 4 e 0.33543(10) 0.03759(11) 0.12038(5) 0.0148(3) 1 0
O4 O2- 4 e 0.4128(3) 0.1230(3) 0.08126(13) 0.0240(10) 1 0
O5 O2- 4 e 0.5200(3) -0.3115(3) 0.17817(14) 0.0244(11) 1 0
Na2 Na1+ 4 e 0.73146(17) -0.26263(19) 0.24481(8) 0.0264(6) 1 0
Na3 Na1+ 4 e 0.30977(19) 0.27064(19) -0.00964(8) 0.0294(6) 1 0
O6 O2- 4 e 0.4143(4) -0.1518(4) 0.28799(15) 0.0334(12) 1 0
Na4 Na1+ 4 e 0.40613(17) -0.18338(18) 0.40057(8) 0.0244(6) 1 0
Na5 Na1+ 4 e 0.3505(2) -0.3761(2) 0.24641(9) 0.0404(7) 1 0
O7 O2- 4 e -0.2385(3) 0.1436(3) 0.12052(13) 0.0191(9) 1 0
O8 O2- 4 e -0.1296(4) 0.2529(6) -0.21567(18) 0.0569(18) 1 0
O9 O2- 4 e 0.3857(3) 0.4425(3) 0.07210(12) 0.0187(9) 1 0
O10 O2- 4 e 0.2087(3) 0.5943(3) 0.09525(17) 0.0365(12) 1 0
Na6 Na1+ 2 c 0 0.5 0 0.0317(9) 1 0
O11 O2- 4 e 0.3708(3) 0.0713(3) 0.18895(13) 0.0316(11) 1 0
O12 O2- 4 e 0.3557(3) -0.1081(3) 0.10831(13) 0.0253(10) 1 0
O13 O2- 4 e 0.4328(3) -0.2069(3) 0.51382(15) 0.0254(11) 1 0
O14 O2- 4 e 0.1601(3) 0.3573(3) 0.07533(13) 0.0215(10) 1 0
O15 O2- 4 e -0.3122(3) -0.0735(3) 0.07019(13) 0.0252(10) 1 0
O16 O2- 4 e -0.3172(3) 0.5511(3) 0.09669(14) 0.0276(11) 1 0
O17 O2- 4 e 0.1846(3) 0.0631(3) 0.09878(15) 0.0300(11) 1 0
O18 O2- 4 e 0.3032(3) 0.4246(3) 0.17472(13) 0.0270(11) 1 0
Na7 Na1+ 2 b -0.5 0 0 0.0958(18) 1 0
O19 O2- 4 e -0.1232(3) 0.4061(3) 0.09776(16) 0.0357(12) 1 0
O20 O2- 4 e -0.2590(3) -0.0556(3) 0.18601(13) 0.0295(11) 1 0
O21 O2- 4 e -0.1022(3) 0.6435(3) 0.07734(14) 0.0242(10) 1 0
O22 O2- 4 e -0.1281(3) 0.5698(4) 0.18509(14) 0.0438(14) 1 0
H1 H1+ 4 e 0.483(5) -0.241(4) 0.160(2) 0.0293 1 0
H2 H1+ 4 e 0.546(5) -0.369(4) 0.1523(19) 0.0293 1 0
H3 H1+ 4 e 0.424(5) -0.125(3) 0.526(2) 0.0305 1 0
H4 H1+ 4 e -0.055(5) 0.294(6) -0.222(3) 0.0682 1 0
H5 H1+ 4 e 0.506(3) -0.130(5) 0.294(2) 0.04 1 0
H6 H1+ 4 e 0.375(5) -0.085(4) 0.267(2) 0.04 1 0
H7 H1+ 4 e 0.388(5) -0.261(4) 0.534(2) 0.0305 1 0
H8 H1+ 4 e -0.104(7) 0.181(5) -0.237(3) 0.0682 1 0
loop_
_atom_site_aniso_label
_atom_site_aniso_type_symbol
_atom_site_aniso_U_11
_atom_site_aniso_U_22
_atom_site_aniso_U_33
_atom_site_aniso_U_12
_atom_site_aniso_U_13
_atom_site_aniso_U_23
U1 U6+ 0.01144(9) 0.01140(9) 0.01459(8) -0.00010(7) 0.00170(5) 0.00176(6)
S1 S6+ 0.0147(5) 0.0154(6) 0.0188(5) 0.0023(4) 0.0033(4) -0.0005(4)
S2 S6+ 0.0138(5) 0.0121(5) 0.0173(5) -0.0017(4) 0.0027(4) 0.0000(4)
S3 S6+ 0.0121(5) 0.0114(5) 0.0188(5) -0.0007(4) 0.0030(4) -0.0009(4)
O1 O2- 0.0206(16) 0.0251(19) 0.0195(15) -0.0014(13) 0.0038(11) -0.0021(13)
O2 O2- 0.0237(17) 0.030(2) 0.0208(15) -0.0062(14) 0.0014(12) 0.0005(13)
Na1 Na1+ 0.0249(9) 0.0181(9) 0.0260(9) 0.0035(8) 0.0028(7) -0.0019(7)
O3 O2- 0.0151(15) 0.0145(16) 0.0332(17) 0.0029(12) 0.0045(12) 0.0012(13)
S4 S6+ 0.0154(5) 0.0125(5) 0.0167(5) 0.0022(4) 0.0035(4) -0.0012(4)
O4 O2- 0.0225(16) 0.0252(19) 0.0255(16) -0.0021(14) 0.0075(12) 0.0039(13)
O5 O2- 0.0282(18) 0.023(2) 0.0215(17) 0.0044(15) 0.0026(13) 0.0010(13)
Na2 Na1+ 0.0246(10) 0.0292(11) 0.0240(9) -0.0030(8) -0.0006(7) 0.0052(8)
Na3 Na1+ 0.0377(11) 0.0235(11) 0.0240(9) 0.0116(8) -0.0055(7) -0.0056(8)
O6 O2- 0.042(2) 0.027(2) 0.0302(19) -0.0022(17) 0.0021(15) 0.0015(15)
Na4 Na1+ 0.0237(9) 0.0249(11) 0.0237(9) -0.0073(8) 0.0002(7) 0.0004(7)
Na5 Na1+ 0.0578(13) 0.0269(12) 0.0407(11) -0.0079(10) 0.0205(9) -0.0089(9)
O7 O2- 0.0145(15) 0.0121(16) 0.0316(16) 0.0004(12) 0.0057(12) 0.0001(12)
O8 O2- 0.040(2) 0.103(4) 0.030(2) 0.004(2) 0.0129(17) 0.009(2)
O9 O2- 0.0163(15) 0.0199(17) 0.0210(15) 0.0012(12) 0.0068(11) -0.0009(12)
O10 O2- 0.0311(19) 0.0146(18) 0.067(2) 0.0082(15) 0.0157(16) 0.0040(16)
Na6 Na1+ 0.0331(15) 0.0385(17) 0.0254(13) 0.0171(13) 0.0108(10) 0.0124(12)
O11 O2- 0.047(2) 0.030(2) 0.0170(16) 0.0035(16) 0.0037(13) -0.0031(13)
O12 O2- 0.0308(18) 0.0131(16) 0.0313(17) 0.0069(14) 0.0025(13) -0.0038(13)
O13 O2- 0.0332(19) 0.0211(18) 0.0247(17) -0.0014(16) 0.0128(13) -0.0012(14)
O14 O2- 0.0207(16) 0.0239(18) 0.0193(15) -0.0102(13) 0.0016(11) 0.0006(13)
O15 O2- 0.0213(16) 0.0223(19) 0.0301(17) 0.0005(14) -0.0020(12) -0.0108(13)
O16 O2- 0.0152(16) 0.033(2) 0.0353(18) 0.0031(14) 0.0065(12) 0.0012(15)
O17 O2- 0.0198(17) 0.027(2) 0.0433(19) 0.0031(14) 0.0057(13) -0.0042(15)
O18 O2- 0.0287(18) 0.035(2) 0.0178(15) -0.0098(15) 0.0043(12) -0.0015(13)
Na7 Na1+ 0.071(2) 0.157(4) 0.0460(19) 0.090(3) -0.0320(17) -0.058(2)
O19 O2- 0.033(2) 0.0142(18) 0.057(2) 0.0061(15) -0.0011(15) -0.0020(16)
O20 O2- 0.0390(19) 0.028(2) 0.0235(16) -0.0057(15) 0.0117(13) 0.0081(14)
O21 O2- 0.0233(17) 0.0183(17) 0.0319(17) -0.0042(14) 0.0070(13) 0.0056(13)
O22 O2- 0.043(2) 0.068(3) 0.0202(17) -0.003(2) 0.0031(14) -0.0037(17)
#End of TTdata_253666-ICSD