
#(C) 2019 by FIZ Karlsruhe - Leibniz Institute for Information Infrastructure.  All rights reserved.
data_253632-ICSD
_database_code_ICSD 253632
_audit_creation_date 2017-08-01
_chemical_name_systematic 'Nonacalcium magnesium sodium heptakis(phosphate)'
_chemical_formula_structural 'Ca9 Mg Na (P O4)7'
_chemical_formula_sum 'Ca9 Mg1 Na1 O28 P7'
_chemical_name_structure_type Ca9MgNa(PO4)7
_chemical_name_mineral Merrillite
_exptl_crystal_density_diffrn 3.11
_cell_measurement_temperature 293.
_publ_section_title

;
Ferromerrillite, Ca9NaFe2+(PO4)7, a new mineral from the Martian meteorites,
and some insights into merrillite-tuite transformation in shergottites
;
loop_
_citation_id
_citation_journal_full
_citation_year
_citation_journal_volume
_citation_page_first
_citation_page_last
_citation_journal_id_ASTM
primary 'European Journal of Mineralogy' 2016 28 125 136 EJMIER
loop_
_publ_author_name
'Britvin, Sergey N.'
'Krivovichev, Sergey V.'
'Armbruster, Thomas'
_cell_length_a 10.3528(13)
_cell_length_b 10.3528(13)
_cell_length_c 37.073(6)
_cell_angle_alpha 90.
_cell_angle_beta 90.
_cell_angle_gamma 120.
_cell_volume 3441.15
_cell_formula_units_Z 6
_symmetry_space_group_name_H-M 'R 3 c H'
_symmetry_Int_Tables_number 161
_refine_ls_R_factor_all 0.031
loop_
_symmetry_equiv_pos_site_id
_symmetry_equiv_pos_as_xyz
1 '-x+y, y, z+1/2'
2 'x, x-y, z+1/2'
3 '-y, -x, z+1/2'
4 '-x+y, -x, z'
5 '-y, x-y, z'
6 'x, y, z'
7 '-x+y+2/3, y+1/3, z+5/6'
8 'x+2/3, x-y+1/3, z+5/6'
9 '-y+2/3, -x+1/3, z+5/6'
10 '-x+y+2/3, -x+1/3, z+1/3'
11 '-y+2/3, x-y+1/3, z+1/3'
12 'x+2/3, y+1/3, z+1/3'
13 '-x+y+1/3, y+2/3, z+1/6'
14 'x+1/3, x-y+2/3, z+1/6'
15 '-y+1/3, -x+2/3, z+1/6'
16 '-x+y+1/3, -x+2/3, z+2/3'
17 '-y+1/3, x-y+2/3, z+2/3'
18 'x+1/3, y+2/3, z+2/3'
loop_
_atom_type_symbol
_atom_type_oxidation_number
Ca2+ 2
Na1+ 1
Mg2+ 2
P5+ 5
O2- -2
loop_
_atom_site_label
_atom_site_type_symbol
_atom_site_symmetry_multiplicity
_atom_site_Wyckoff_symbol
_atom_site_fract_x
_atom_site_fract_y
_atom_site_fract_z
_atom_site_B_iso_or_equiv
_atom_site_occupancy
_atom_site_attached_hydrogens
Ca1 Ca2+ 18 b 0.72791(10) 0.85836(10) 0.43139(2) 0.01254(17) 1 0
Ca2 Ca2+ 18 b 0.61626(10) 0.82393(9) 0.23004(2) 0.01250(18) 1 0
Ca3 Ca2+ 18 b 0.12359(9) 0.26904(10) 0.32388(2) 0.01564(18) 1 0
Na1 Na1+ 6 a 0. 0. 0.18556(9) 0.0237(8) 1 0
Mg1 Mg2+ 6 a 0. 0. -0.00040(7) 0.0104(4) 1 0
P1 P5+ 6 a 0. 0. 0.26517(5) 0.0119(3) 1 0
P2 P5+ 18 b 0.68730(13) 0.86192(13) 0.13382(3) 0.0116(2) 1 0
P3 P5+ 18 b 0.65600(13) 0.84931(12) 0.03004(3) 0.0105(2) 1 0
O1 O2- 6 a 0. 0. 0.30644(14) 0.0172(11) 1 0
O2 O2- 18 b 0.0039(4) 0.8615(3) 0.25162(10) 0.0192(6) 1 0
O3 O2- 18 b 0.7417(4) 0.9190(4) 0.17239(8) 0.0174(6) 1 0
O4 O2- 18 b 0.7575(4) 0.7730(4) 0.11985(8) 0.0175(7) 1 0
O5 O2- 18 b 0.7235(3) 0.0009(3) 0.11095(7) 0.0142(6) 1 0
O6 O2- 18 b 0.5140(3) 0.7598(3) 0.13157(8) 0.0133(6) 1 0
O7 O2- 18 b 0.6039(3) 0.9573(3) 0.04230(7) 0.0152(6) 1 0
O8 O2- 18 b 0.5792(4) 0.7000(4) 0.05026(8) 0.0187(6) 1 0
O9 O2- 18 b 0.8251(3) 0.9231(3) 0.03680(8) 0.0128(6) 1 0
O10 O2- 18 b 0.6220(3) 0.8187(3) 0.98981(8) 0.0153(6) 1 0
loop_
_atom_site_aniso_label
_atom_site_aniso_type_symbol
_atom_site_aniso_U_11
_atom_site_aniso_U_22
_atom_site_aniso_U_33
_atom_site_aniso_U_12
_atom_site_aniso_U_13
_atom_site_aniso_U_23
Ca1 Ca2+ 0.0141(4) 0.0137(4) 0.0102(3) 0.0072(3) 0.0000(3) -0.0013(3)
Ca2 Ca2+ 0.0135(4) 0.0127(4) 0.0100(3) 0.0056(3) -0.0018(3) -0.0001(4)
Ca3 Ca2+ 0.0148(4) 0.0209(4) 0.0128(4) 0.0101(4) -0.0009(3) 0.0020(3)
Na1 Na1+ 0.0241(11) 0.0241(11) 0.0229(19) 0.0121(5) 0. 0.
Mg1 Mg2+ 0.0120(6) 0.0120(6) 0.0073(8) 0.0060(3) 0. 0.
P1 P5+ 0.0117(5) 0.0117(5) 0.0122(7) 0.0059(2) 0. 0.
P2 P5+ 0.0128(4) 0.0129(5) 0.0093(5) 0.0066(4) 0.0001(4) 0.0005(4)
P3 P5+ 0.0114(4) 0.0123(5) 0.0073(4) 0.0057(4) 0.0005(4) 0.0015(4)
O1 O2- 0.0204(17) 0.0204(17) 0.011(2) 0.0102(9) 0. 0.
O2 O2- 0.0193(13) 0.0176(16) 0.0209(14) 0.0095(14) 0.0049(12) -0.0004(13)
O3 O2- 0.0226(15) 0.0207(15) 0.0084(13) 0.0104(14) -0.0019(12) -0.0017(11)
O4 O2- 0.0190(15) 0.0252(17) 0.0121(14) 0.0139(14) 0.0016(12) 0.0007(12)
O5 O2- 0.0148(14) 0.0150(14) 0.0102(12) 0.0055(12) -0.0013(11) -0.0016(11)
O6 O2- 0.0139(14) 0.0131(14) 0.0124(13) 0.0064(13) 0.0025(10) 0.0013(12)
O7 O2- 0.0150(14) 0.0223(15) 0.0090(13) 0.0099(12) -0.0008(11) -0.0012(13)
O8 O2- 0.0194(15) 0.0188(16) 0.0125(13) 0.0054(13) -0.0001(13) 0.0025(12)
O9 O2- 0.0120(13) 0.0148(15) 0.0116(13) 0.0067(13) 0.0000(11) -0.0015(12)
O10 O2- 0.0160(14) 0.0187(14) 0.0094(13) 0.0072(12) -0.0016(11) -0.0006(12)
#End of TTdata_253632-ICSD