
#(C) 2019 by FIZ Karlsruhe - Leibniz Institute for Information Infrastructure.  All rights reserved.
data_253867-ICSD
_database_code_ICSD 253867
_audit_creation_date 2018-02-01
_chemical_name_systematic 'Sodium vanadium dioxide difluoride - HT'
_chemical_formula_structural 'Na V O2 F2'
_chemical_formula_sum 'F2 Na1 O2 V1'
_exptl_crystal_density_diffrn 3.07
_cell_measurement_temperature 295.
_publ_section_title

;
Polymorphism of NaVO2F2: a P21/c superstructure with pseudosymmetry of P21/m
in the subcell
;
loop_
_citation_id
_citation_journal_full
_citation_year
_citation_journal_volume
_citation_page_first
_citation_page_last
_citation_journal_id_ASTM
primary 'Acta Crystallographica, Section C: Structural Chemistry' 2015 71 440
447 ACSCGG
loop_
_publ_author_name
'Yu, Zi-Qun'
'Wang, Jing-Quan'
'Huang, Ya-Xi'
'Botis, Sanda M.'
'Pan, Yuanming'
'Mi, Jin-Xiao'
_cell_length_a 6.369(5)
_cell_length_b 3.625(2)
_cell_length_c 7.196(6)
_cell_angle_alpha 90
_cell_angle_beta 110.37(4)
_cell_angle_gamma 90
_cell_volume 155.74
_cell_formula_units_Z 2
_symmetry_space_group_name_H-M 'P 1 21/m 1'
_symmetry_Int_Tables_number 11
_refine_ls_R_factor_all 0.0281
loop_
_symmetry_equiv_pos_site_id
_symmetry_equiv_pos_as_xyz
1 'x, -y+1/2, z'
2 '-x, -y, -z'
3 '-x, y+1/2, -z'
4 'x, y, z'
loop_
_atom_type_symbol
_atom_type_oxidation_number
V5+ 5
Na1+ 1
F1- -1
O2- -2
loop_
_atom_site_label
_atom_site_type_symbol
_atom_site_symmetry_multiplicity
_atom_site_Wyckoff_symbol
_atom_site_fract_x
_atom_site_fract_y
_atom_site_fract_z
_atom_site_B_iso_or_equiv
_atom_site_occupancy
_atom_site_attached_hydrogens
V1 V5+ 2 e 0.36125(7) 0.25 0.28387(7) 0.0185(2) 1 0
Na1 Na1+ 2 e 0.13500(18) 0.25 0.70839(17) 0.0196(3) 1 0
F1 F1- 2 e 0.1213(3) 0.25 0.3815(3) 0.0178(4) 1 0
F2 F1- 2 e 0.6398(3) 0.25 0.2589(3) 0.0215(4) 1 0
O1 O2- 2 e 0.5938(3) 0.25 0.6430(3) 0.0159(4) 1 0
O2 O2- 2 e 0.2142(4) 0.25 0.0565(3) 0.0347(6) 1 0
loop_
_atom_site_aniso_label
_atom_site_aniso_type_symbol
_atom_site_aniso_U_11
_atom_site_aniso_U_22
_atom_site_aniso_U_33
_atom_site_aniso_U_12
_atom_site_aniso_U_13
_atom_site_aniso_U_23
V1 V5+ 0.0093(3) 0.0328(4) 0.0150(3) 0. 0.0064(2) 0.
Na1 Na1+ 0.0182(7) 0.0222(7) 0.0198(7) 0. 0.0084(5) 0.
F1 F1- 0.0113(8) 0.0244(9) 0.0203(8) 0. 0.0088(7) 0.
F2 F1- 0.0136(8) 0.0253(9) 0.0306(9) 0. 0.0142(7) 0.
O1 O2- 0.0156(9) 0.0133(9) 0.0215(10) 0. 0.0098(8) 0.
O2 O2- 0.0213(11) 0.0633(18) 0.0186(12) 0. 0.0057(10) 0.
#End of TTdata_253867-ICSD