
#(C) 2019 by FIZ Karlsruhe - Leibniz Institute for Information Infrastructure.  All rights reserved.
data_25382-ICSD
_database_code_ICSD 25382
_audit_creation_date 1980-01-01
_audit_update_record 2014-08-01
_chemical_name_systematic 'Tetrasodium closo-decathiotetragermanate'
_chemical_formula_structural 'Na4 (Ge4 S10)'
_chemical_formula_sum 'Ge4 Na4 S10'
_chemical_name_structure_type Na4Ge4S10
_exptl_crystal_density_diffrn 2.69
_publ_section_title 'Structure cristalline de Na4 Ge4 S10'
loop_
_citation_id
_citation_journal_full
_citation_year
_citation_journal_volume
_citation_page_first
_citation_page_last
_citation_journal_id_ASTM
primary 'Revue de Chimie Minerale' 1971 8 477 489 RVCMA8
loop_
_publ_author_name
'Philippot, E.'
'Ribes, M.'
'Lindqvist, O.'
_cell_length_a 12.847(3)
_cell_length_b 12.901(9)
_cell_length_c 10.476(2)
_cell_angle_alpha 90.
_cell_angle_beta 90.
_cell_angle_gamma 90.
_cell_volume 1736.28
_cell_formula_units_Z 4
_symmetry_space_group_name_H-M 'C m c m'
_symmetry_Int_Tables_number 63
_refine_ls_R_factor_all 0.074
loop_
_symmetry_equiv_pos_site_id
_symmetry_equiv_pos_as_xyz
1 '-x, y, -z+1/2'
2 '-x, -y, z+1/2'
3 '-x, y, z'
4 '-x, -y, -z'
5 'x, -y, z+1/2'
6 'x, y, -z+1/2'
7 'x, -y, -z'
8 'x, y, z'
9 '-x+1/2, y+1/2, -z+1/2'
10 '-x+1/2, -y+1/2, z+1/2'
11 '-x+1/2, y+1/2, z'
12 '-x+1/2, -y+1/2, -z'
13 'x+1/2, -y+1/2, z+1/2'
14 'x+1/2, y+1/2, -z+1/2'
15 'x+1/2, -y+1/2, -z'
16 'x+1/2, y+1/2, z'
loop_
_atom_type_symbol
_atom_type_oxidation_number
Ge4+ 4
S2- -2
Na1+ 1
loop_
_atom_site_label
_atom_site_type_symbol
_atom_site_symmetry_multiplicity
_atom_site_Wyckoff_symbol
_atom_site_fract_x
_atom_site_fract_y
_atom_site_fract_z
_atom_site_B_iso_or_equiv
_atom_site_occupancy
_atom_site_attached_hydrogens
Ge1 Ge4+ 8 f 0 0.2556(1) 0.0818(2) . 1. 0
Ge2 Ge4+ 8 g 0.1378(1) 0.4543(1) 0.25 . 1. 0
S1 S2- 4 c 0 0.5565(4) 0.25 . 1. 0
S2 S2- 16 h 0.1443(2) 0.3530(2) 0.0770(3) . 1. 0
S3 S2- 4 c 0 0.1549(4) 0.25 . 1. 0
S4 S2- 8 f 0 0.1571(3) -.0827(5) . 1. 0
S5 S2- 8 g 0.2745(3) 0.5486(3) 0.25 . 1. 0
Na1 Na1+ 8 e 0.1489(6) 0 0 . 1. 0
Na2 Na1+ 8 g 0.3358(8) 0.2472(6) 0.25 . 1. 0
loop_
_atom_site_aniso_label
_atom_site_aniso_type_symbol
_atom_site_aniso_U_11
_atom_site_aniso_U_22
_atom_site_aniso_U_33
_atom_site_aniso_U_12
_atom_site_aniso_U_13
_atom_site_aniso_U_23
Ge1 Ge4+ 0.034(1) 0.021(1) 0.026(1) 0 0 -.015(2)
Ge2 Ge4+ 0.030(1) 0.021(1) 0.029(2) -.006(1) 0 0
S1 S2- 0.035(3) 0.020(3) 0.066(6) 0 0 0
S2 S2- 0.041(2) 0.028(1) 0.033(2) -.017(2) 0.011(3) -.011(3)
S3 S2- 0.043(3) 0.025(3) 0.032(4) 0 0 0
S4 S2- 0.046(2) 0.025(2) 0.031(3) 0 0 -.025(4)
S5 S2- 0.040(2) 0.029(2) 0.034(3) -.018(3) 0 0
Na1 Na1+ 0.051(5) 0.040(4) 0.028(6) 0 0 0.017(7)
Na2 Na1+ 0.073(7) 0.040(5) 0.058(8) -.049(9) 0 0
#End of TTdata_25382-ICSD