
#(C) 2019 by FIZ Karlsruhe - Leibniz Institute for Information Infrastructure.  All rights reserved.
data_253865-ICSD
_database_code_ICSD 253865
_audit_creation_date 2018-02-01
_chemical_name_systematic 'Sodium vanadium dioxide difluoride'
_chemical_formula_structural 'Na V O2 F2'
_chemical_formula_sum 'F2 Na1 O2 V1'
_chemical_name_structure_type PbWO4
_exptl_crystal_density_diffrn 3.09
_cell_measurement_temperature 173.
_publ_section_title

;
Polymorphism of NaVO2F2: a P21/c superstructure with pseudosymmetry of P21/m
in the subcell
;
loop_
_citation_id
_citation_journal_full
_citation_year
_citation_journal_volume
_citation_page_first
_citation_page_last
_citation_journal_id_ASTM
primary 'Acta Crystallographica, Section C: Structural Chemistry' 2015 71 440
447 ACSCGG
loop_
_publ_author_name
'Yu, Zi-Qun'
'Wang, Jing-Quan'
'Huang, Ya-Xi'
'Botis, Sanda M.'
'Pan, Yuanming'
'Mi, Jin-Xiao'
_cell_length_a 6.3846(18)
_cell_length_b 3.6024(9)
_cell_length_c 14.387(4)
_cell_angle_alpha 90
_cell_angle_beta 110.636(10)
_cell_angle_gamma 90
_cell_volume 309.66
_cell_formula_units_Z 4
_symmetry_space_group_name_H-M 'P 1 21/c 1'
_symmetry_Int_Tables_number 14
_refine_ls_R_factor_all 0.0259
loop_
_symmetry_equiv_pos_site_id
_symmetry_equiv_pos_as_xyz
1 'x, -y+1/2, z+1/2'
2 '-x, -y, -z'
3 '-x, y+1/2, -z+1/2'
4 'x, y, z'
loop_
_atom_type_symbol
_atom_type_oxidation_number
V5+ 5
Na1+ 1
F1- -1
O2- -2
loop_
_atom_site_label
_atom_site_type_symbol
_atom_site_symmetry_multiplicity
_atom_site_Wyckoff_symbol
_atom_site_fract_x
_atom_site_fract_y
_atom_site_fract_z
_atom_site_B_iso_or_equiv
_atom_site_occupancy
_atom_site_attached_hydrogens
V1 V5+ 4 e 0.63842(5) 0.25633(9) 0.35760(3) 0.0105(2) 1 0
Na1 Na1+ 4 e 0.13432(13) 0.7154(2) 0.35395(6) 0.0120(3) 1 0
F1 F1- 4 e 0.8790(2) 0.2135(3) 0.30904(10) 0.0115(3) 1 0
F2 F1- 4 e 0.3595(2) 0.2138(3) 0.37051(11) 0.0135(3) 1 0
O1 O2- 4 e 0.5941(2) 0.7251(3) 0.32098(12) 0.0107(3) 1 0
O2 O2- 4 e 0.7874(3) 0.2637(4) 0.47197(13) 0.0196(4) 1 0
loop_
_atom_site_aniso_label
_atom_site_aniso_type_symbol
_atom_site_aniso_U_11
_atom_site_aniso_U_22
_atom_site_aniso_U_33
_atom_site_aniso_U_12
_atom_site_aniso_U_13
_atom_site_aniso_U_23
V1 V5+ 0.0070(3) 0.0167(3) 0.0082(3) -0.00079(10) 0.00330(17) -0.00107(10)
Na1 Na1+ 0.0127(5) 0.0123(5) 0.0112(5) -0.0001(3) 0.0042(4) -0.0001(3)
F1 F1- 0.0082(6) 0.0152(6) 0.0119(6) 0.0001(4) 0.0047(5) 0.0001(4)
F2 F1- 0.0107(6) 0.0143(6) 0.0182(6) -0.0004(4) 0.0083(5) -0.0001(4)
O1 O2- 0.0103(7) 0.0091(7) 0.0137(8) 0.0000(4) 0.0056(6) 0.0003(5)
O2 O2- 0.0154(8) 0.0315(10) 0.0110(8) -0.0016(6) 0.0037(6) -0.0009(5)
#End of TTdata_253865-ICSD