
#(C) 2019 by FIZ Karlsruhe - Leibniz Institute for Information Infrastructure.  All rights reserved.
data_253891-ICSD
_database_code_ICSD 253891
_audit_creation_date 2018-02-01
_chemical_name_systematic 'Hexasodium manganese(II) tetrakis(sulfate)'
_chemical_formula_structural 'Na6 Mn (S O4)4'
_chemical_formula_sum 'Mn1 Na6 O16 S4'
_chemical_name_mineral Vanthoffite
_exptl_crystal_density_diffrn 2.81
_cell_measurement_temperature 295.
_publ_section_title
'Superionic behavior and phase transition in a Vanthoffite mineral'
loop_
_citation_id
_citation_journal_full
_citation_year
_citation_journal_volume
_citation_page_first
_citation_page_last
_citation_journal_id_ASTM
primary 'Inorganic Chemistry' 2017 56 6048 6051 INOCAJ
loop_
_publ_author_name
'Sharma, Vaishali'
'Swain, Diptikanta'
'Guru Row, Tayur N.'
_cell_length_a 9.691(5)
_cell_length_b 9.281(5)
_cell_length_c 8.258(5)
_cell_angle_alpha 90
_cell_angle_beta 113.124(5)
_cell_angle_gamma 90
_cell_volume 683.06
_cell_formula_units_Z 2
_symmetry_space_group_name_H-M 'P 1 21/c 1'
_symmetry_Int_Tables_number 14
_refine_ls_R_factor_all 0.0258
loop_
_symmetry_equiv_pos_site_id
_symmetry_equiv_pos_as_xyz
1 'x, -y+1/2, z+1/2'
2 '-x, -y, -z'
3 '-x, y+1/2, -z+1/2'
4 'x, y, z'
loop_
_atom_type_symbol
_atom_type_oxidation_number
Mn2+ 2
S6+ 6
Na1+ 1
O2- -2
loop_
_atom_site_label
_atom_site_type_symbol
_atom_site_symmetry_multiplicity
_atom_site_Wyckoff_symbol
_atom_site_fract_x
_atom_site_fract_y
_atom_site_fract_z
_atom_site_B_iso_or_equiv
_atom_site_occupancy
_atom_site_attached_hydrogens
Mn1 Mn2+ 2 d 0.5 0. 0.5 0.01656(14) 1 0
S1 S6+ 4 e 0.84623(5) 0.84597(6) 0.66700(6) 0.01485(14) 1 0
S2 S6+ 4 e 0.64258(5) 0.30594(6) 0.71731(6) 0.01457(14) 1 0
Na1 Na1+ 4 e 0.06817(11) 0.65136(10) 0.92425(13) 0.0267(2) 1 0
Na2 Na1+ 4 e 0.81401(10) 0.01107(10) 0.96806(11) 0.0190(2) 1 0
Na3 Na1+ 4 e 0.61439(12) 0.63678(11) 0.68534(15) 0.0306(3) 1 0
O1 O2- 4 e 0.84033(18) 0.68870(17) 0.6519(2) 0.0210(3) 1 0
O2 O2- 4 e 0.70446(16) 0.89669(18) 0.6789(2) 0.0194(3) 1 0
O3 O2- 4 e 0.8640(2) 0.91052(19) 0.5158(2) 0.0263(4) 1 0
O4 O2- 4 e 0.96902(18) 0.88880(18) 0.8318(2) 0.0235(4) 1 0
O5 O2- 4 e 0.63663(19) 0.39607(18) 0.5694(2) 0.0230(4) 1 0
O6 O2- 4 e 0.78820(18) 0.2361(2) 0.8002(2) 0.0264(4) 1 0
O7 O2- 4 e 0.52380(18) 0.19461(18) 0.6530(2) 0.0215(3) 1 0
O8 O2- 4 e 0.6129(2) 0.39685(19) 0.8452(2) 0.0274(4) 1 0
loop_
_atom_site_aniso_label
_atom_site_aniso_type_symbol
_atom_site_aniso_U_11
_atom_site_aniso_U_22
_atom_site_aniso_U_33
_atom_site_aniso_U_12
_atom_site_aniso_U_13
_atom_site_aniso_U_23
Mn1 Mn2+ 0.0177(2) 0.0163(3) 0.0153(2) 0.00099(17) 0.00607(19) -0.00001(16)
S1 S6+ 0.0149(3) 0.0143(3) 0.0158(3) -0.00030(19) 0.0065(2) -0.00046(18)
S2 S6+ 0.0145(3) 0.0150(3) 0.0142(2) -0.00221(19) 0.00574(19) -0.00115(18)
Na1 Na1+ 0.0290(5) 0.0187(5) 0.0267(5) 0.0044(4) 0.0049(4) 0.0007(4)
Na2 Na1+ 0.0195(4) 0.0200(5) 0.0180(4) -0.0004(3) 0.0077(4) -0.0010(3)
Na3 Na1+ 0.0347(6) 0.0255(5) 0.0430(6) -0.0055(4) 0.0277(5) -0.0064(4)
O1 O2- 0.0256(8) 0.0148(8) 0.0234(8) -0.0009(6) 0.0105(7) -0.0023(6)
O2 O2- 0.0144(7) 0.0243(8) 0.0191(7) 0.0039(6) 0.0061(6) -0.0013(6)
O3 O2- 0.0358(10) 0.0234(9) 0.0267(8) 0.0014(8) 0.0198(8) 0.0055(7)
O4 O2- 0.0159(7) 0.0261(9) 0.0253(8) -0.0018(7) 0.0046(6) -0.0083(7)
O5 O2- 0.0271(8) 0.0231(9) 0.0204(8) 0.0012(7) 0.0112(7) 0.0051(6)
O6 O2- 0.0172(8) 0.0255(9) 0.0314(9) 0.0024(7) 0.0040(7) 0.0067(7)
O7 O2- 0.0206(8) 0.0233(9) 0.0230(8) -0.0085(6) 0.0112(6) -0.0089(6)
O8 O2- 0.0370(10) 0.0259(9) 0.0257(8) -0.0077(8) 0.0191(8) -0.0109(7)
#End of TTdata_253891-ICSD