
#(C) 2019 by FIZ Karlsruhe - Leibniz Institute for Information Infrastructure.  All rights reserved.
data_253876-ICSD
_database_code_ICSD 253876
_audit_creation_date 2018-02-01
_chemical_name_systematic 'Sodium gallium diarsenate(V)'
_chemical_formula_structural 'Na Ga (As2 O7)'
_chemical_formula_sum 'As2 Ga1 Na1 O7'
_chemical_name_structure_type NaAlAs2O7
_exptl_crystal_density_diffrn 4.42
_cell_measurement_temperature 293.
_publ_section_title

;
New M+, M3+-arsenates - the framework structures of AgM3+(HAsO4)2 (M3+ = Al,
Ga) and M+GaAs2O7 (M+ = Na, Ag)
;
loop_
_citation_id
_citation_journal_full
_citation_year
_citation_journal_volume
_citation_page_first
_citation_page_last
_citation_journal_id_ASTM
primary 'Acta Crystallographica, Section E: Crystallographic Communications'
2017 73 785 790 ACSECI
loop_
_publ_author_name
'Schwendtner, Karolina'
'Kolitsch, Uwe'
_cell_length_a 6.9870(10)
_cell_length_b 8.266(2)
_cell_length_c 9.677(2)
_cell_angle_alpha 90
_cell_angle_beta 107.50(3)
_cell_angle_gamma 90
_cell_volume 533.02
_cell_formula_units_Z 4
_symmetry_space_group_name_H-M 'P 1 21/c 1'
_symmetry_Int_Tables_number 14
_refine_ls_R_factor_all 0.0325
loop_
_symmetry_equiv_pos_site_id
_symmetry_equiv_pos_as_xyz
1 'x, -y+1/2, z+1/2'
2 '-x, -y, -z'
3 '-x, y+1/2, -z+1/2'
4 'x, y, z'
loop_
_atom_type_symbol
_atom_type_oxidation_number
Na1+ 1
Ga3+ 3
As5+ 5
O2- -2
loop_
_atom_site_label
_atom_site_type_symbol
_atom_site_symmetry_multiplicity
_atom_site_Wyckoff_symbol
_atom_site_fract_x
_atom_site_fract_y
_atom_site_fract_z
_atom_site_B_iso_or_equiv
_atom_site_occupancy
_atom_site_attached_hydrogens
Na1 Na1+ 4 e 0.8070(3) 0.1389(2) 0.4691(2) 0.0212(4) 1 0
Ga1 Ga3+ 4 e 0.28177(7) 0.27455(6) 0.49377(5) 0.00989(14) 1 0
As1 As5+ 4 e 0.51759(7) 0.41477(5) 0.29095(5) 0.00962(13) 1 0
As2 As5+ 4 e 0.94401(7) 0.53707(5) 0.29682(5) 0.00931(13) 1 0
O1 O2- 4 e 0.3798(5) 0.4129(4) 0.1176(3) 0.0128(6) 1 0
O2 O2- 4 e 0.5235(5) 0.5967(4) 0.3635(4) 0.0132(6) 1 0
O3 O2- 4 e 0.4850(5) 0.2586(4) 0.3921(4) 0.0126(6) 1 0
O4 O2- 4 e 0.7683(5) 0.3827(4) 0.2891(4) 0.0137(6) 1 0
O5 O2- 4 e 0.1637(5) 0.4423(4) 0.3491(3) 0.0134(6) 1 0
O6 O2- 4 e 0.9305(5) 0.6834(4) 0.4127(4) 0.0140(6) 1 0
O7 O2- 4 e 0.9038(5) 0.6014(4) 0.1260(3) 0.0117(6) 1 0
loop_
_atom_site_aniso_label
_atom_site_aniso_type_symbol
_atom_site_aniso_U_11
_atom_site_aniso_U_22
_atom_site_aniso_U_33
_atom_site_aniso_U_12
_atom_site_aniso_U_13
_atom_site_aniso_U_23
Na1 Na1+ 0.0190(10) 0.0122(9) 0.0286(10) -0.0006(8) 0.0013(8) 0.0005(8)
Ga1 Ga3+ 0.0130(3) 0.0074(2) 0.0096(2) 0.00006(16) 0.00367(19) 0.00009(16)
As1 As5+ 0.0125(2) 0.0070(2) 0.0090(2) -0.00080(15) 0.00274(17) 0.00001(15)
As2 As5+ 0.0120(2) 0.0073(2) 0.0086(2) 0.00045(15) 0.00308(17) 0.00032(15)
O1 O2- 0.0175(17) 0.0087(14) 0.0102(14) -0.0003(12) 0.0011(12) 0.0012(12)
O2 O2- 0.0167(16) 0.0064(14) 0.0164(15) -0.0015(11) 0.0049(13) -0.0028(12)
O3 O2- 0.0166(16) 0.0087(14) 0.0146(15) 0.0022(12) 0.0080(13) 0.0035(12)
O4 O2- 0.0098(15) 0.0121(14) 0.0198(16) 0.0002(12) 0.0055(12) 0.0001(12)
O5 O2- 0.0130(16) 0.0124(14) 0.0142(15) 0.0039(12) 0.0029(13) 0.0043(12)
O6 O2- 0.0188(17) 0.0120(15) 0.0139(14) -0.0035(12) 0.0088(13) -0.0043(12)
O7 O2- 0.0157(16) 0.0116(14) 0.0082(13) 0.0022(12) 0.0042(12) 0.0033(12)
#End of TTdata_253876-ICSD