
#(C) 2019 by FIZ Karlsruhe - Leibniz Institute for Information Infrastructure.  All rights reserved.
data_253983-ICSD
_database_code_ICSD 253983
_audit_creation_date 2018-02-01
_chemical_name_systematic 'Sodium samarium cobalt tungsten oxide (1/1/1/1/6)'
_chemical_formula_structural 'Na Sm Co W O6'
_chemical_formula_sum 'Co1 Na1 O6 Sm1 W1'
_chemical_name_structure_type Ca3UO6
_exptl_crystal_density_diffrn 7.23
_cell_measurement_temperature 300.
_publ_section_title

;
Structural study of a doubly ordered perovskite family NaLnCoWO6 (Ln = Y, La,
Pr, Nd, Sm, Eu, Gd, Tb, Dy, Ho, Er, Yb): Hybrid Improper Ferroelectricity in
nine new members
;
loop_
_citation_id
_citation_journal_full
_citation_year
_citation_journal_volume
_citation_page_first
_citation_page_last
_citation_journal_id_ASTM
primary 'Inorganic Chemistry' 2017 56 8478 8489 INOCAJ
loop_
_publ_author_name
'Zuo, Peng'
'Colin, Claire V.'
'Klein, Holger'
'Bordet, Pierre'
'Suard, Emmanuelle'
'Elkaim, Erik'
'Darie, Celine'
_cell_length_a 5.43629(2)
_cell_length_b 5.51765(2)
_cell_length_c 7.84023(4)
_cell_angle_alpha 90.
_cell_angle_beta 90.2970(3)
_cell_angle_gamma 90.
_cell_volume 235.16
_cell_formula_units_Z 2
_symmetry_space_group_name_H-M 'P 1 21 1'
_symmetry_Int_Tables_number 4
_refine_ls_R_factor_all 0.0837
loop_
_symmetry_equiv_pos_site_id
_symmetry_equiv_pos_as_xyz
1 '-x, y+1/2, -z'
2 'x, y, z'
loop_
_atom_type_symbol
_atom_type_oxidation_number
Na1+ 1
Sm3+ 3
Co2+ 2
W6+ 6
O2- -2
loop_
_atom_site_label
_atom_site_type_symbol
_atom_site_symmetry_multiplicity
_atom_site_Wyckoff_symbol
_atom_site_fract_x
_atom_site_fract_y
_atom_site_fract_z
_atom_site_B_iso_or_equiv
_atom_site_occupancy
_atom_site_attached_hydrogens
Na1 Na1+ 2 a 0.2497(18) 0.7426(18) 0.0008(11) 0.0103(18) 1. 0
Sm1 Sm3+ 2 a 0.2606(3) 0.8025(4) 0.4999(2) 0.0141(3) 1. 0
Co1 Co2+ 2 a 0.7514(6) 0.7629(14) 0.2475(3) 0.0085(7) 1. 0
W1 W6+ 2 a 0.75800(19) 0.75 0.76603(8) 0.01189(16) 1. 0
O1 O2- 2 a 0.488(2) 0.531(3) 0.694(2) 0.0055(10) 1. 0
O2 O2- 2 a 0.453(2) 0.510(2) 0.287(2) 0.0055(10) 1. 0
O3 O2- 2 a 0.047(2) -0.059(2) 0.1863(17) 0.0055(10) 1. 0
O4 O2- 2 a 0.041(2) -0.069(2) 0.7662(18) 0.0055(10) 1. 0
O5 O2- 2 a 0.8277(17) 0.706(2) 0.5031(12) 0.0055(10) 1. 0
O6 O2- 2 a 0.6660(15) 0.757(3) -0.0147(11) 0.0055(10) 1. 0
#End of TTdata_253983-ICSD