
#(C) 2019 by FIZ Karlsruhe - Leibniz Institute for Information Infrastructure.  All rights reserved.
data_253902-ICSD
_database_code_ICSD 253902
_audit_creation_date 2018-02-01
_chemical_name_systematic 'Octasodium rubidium hexatricosaoxo-enneaicosaborate'
_chemical_formula_structural 'Na8 Rb B21 O36'
_chemical_formula_sum 'B21 Na8 O36 Rb1'
_exptl_crystal_density_diffrn 2.39
_cell_measurement_temperature 296.
_publ_section_title

;
Na8MB21O36 (M = Rb and Cs): noncentrosymmetric borates with unprecedented
[B21O36]9- fundamental building blocks
;
loop_
_citation_id
_citation_journal_full
_citation_year
_citation_journal_volume
_citation_page_first
_citation_page_last
_citation_journal_id_ASTM
primary 'Inorganic Chemistry' 2017 56 5506 5509 INOCAJ
loop_
_publ_author_name
'Mutailipu, Miriding'
'Zhang, Min'
'Su, Xin'
'Yang, Zhihua'
'Pan, Shilie'
_cell_length_a 15.0572(12)
_cell_length_b 15.0572(12)
_cell_length_c 6.5804(11)
_cell_angle_alpha 90.
_cell_angle_beta 90.
_cell_angle_gamma 90.
_cell_volume 1491.9
_cell_formula_units_Z 2
_symmetry_space_group_name_H-M 'I -4'
_symmetry_Int_Tables_number 82
_refine_ls_R_factor_all 0.0369
loop_
_symmetry_equiv_pos_site_id
_symmetry_equiv_pos_as_xyz
1 '-y, x, -z'
2 'y, -x, -z'
3 '-x, -y, z'
4 'x, y, z'
5 '-y+1/2, x+1/2, -z+1/2'
6 'y+1/2, -x+1/2, -z+1/2'
7 '-x+1/2, -y+1/2, z+1/2'
8 'x+1/2, y+1/2, z+1/2'
loop_
_atom_type_symbol
_atom_type_oxidation_number
Rb1+ 1
Na1+ 1
O2- -2
B3+ 3
loop_
_atom_site_label
_atom_site_type_symbol
_atom_site_symmetry_multiplicity
_atom_site_Wyckoff_symbol
_atom_site_fract_x
_atom_site_fract_y
_atom_site_fract_z
_atom_site_B_iso_or_equiv
_atom_site_occupancy
_atom_site_attached_hydrogens
Rb1 Rb1+ 8 g 1.0328(2) 0.9903(14) -0.0117(10) 0.0682(18) 0.25 0
Na1 Na1+ 8 g 0.60334(8) 0.89416(9) 0.4506(2) 0.0238(3) 1 0
Na2 Na1+ 8 g 0.83102(11) 0.78751(9) 0.2504(3) 0.0406(5) 1 0
O1 O2- 8 g 0.80231(14) 0.95955(14) 0.7096(3) 0.0186(5) 1 0
O2 O2- 8 g 0.75075(14) 0.92932(14) 0.3728(3) 0.0154(5) 1 0
O3 O2- 8 g 0.79149(13) 0.89781(13) 0.0360(3) 0.0133(4) 1 0
O4 O2- 8 g 0.52656(13) 0.92332(13) -0.1272(3) 0.0157(5) 1 0
O5 O2- 8 g 0.79859(13) 1.19323(13) 0.2463(4) 0.0178(5) 1 0
O6 O2- 8 g 0.75827(15) 1.05143(14) 0.1290(3) 0.0190(5) 1 0
O7 O2- 8 g 0.80410(15) 1.07136(14) 0.4701(3) 0.0245(6) 1 0
O8 O2- 8 g 0.67139(13) 0.87231(14) -0.2037(3) 0.0152(5) 1 0
O9 O2- 8 g 0.64171(14) 0.94630(14) 0.1098(3) 0.0176(5) 1 0
B1 B3+ 8 g 0.7858(2) 0.9832(2) 0.5181(6) 0.0154(8) 1 0
B2 B3+ 8 g 0.6152(2) 0.9137(2) -0.0741(5) 0.0125(7) 1 0
B3 B3+ 8 g 0.7878(2) 1.1049(2) 0.2770(5) 0.0149(7) 1 0
B4 B3+ 8 g 0.7386(2) 0.9549(2) 0.1570(5) 0.0157(8) 1 0
B5 B3+ 8 g 0.7686(2) 0.8823(2) 0.8273(5) 0.0153(8) 1 0
B6 B3+ 2 c 0.5 1. -0.25 0.0105(13) 1 0
loop_
_atom_site_aniso_label
_atom_site_aniso_type_symbol
_atom_site_aniso_U_11
_atom_site_aniso_U_22
_atom_site_aniso_U_33
_atom_site_aniso_U_12
_atom_site_aniso_U_13
_atom_site_aniso_U_23
Rb1 Rb1+ 0.0504(15) 0.079(6) 0.0754(18) -0.011(4) 0.003(2) 0.008(2)
Na1 Na1+ 0.0227(8) 0.0267(7) 0.0220(7) -0.0053(6) 0.0026(6) -0.0067(6)
Na2 Na1+ 0.0542(11) 0.0221(8) 0.0455(10) -0.0031(6) -0.0280(8) 0.0104(7)
O1 O2- 0.0275(14) 0.0205(12) 0.0079(12) -0.0074(10) -0.0028(9) 0.0006(9)
O2 O2- 0.0206(12) 0.0178(12) 0.0078(11) -0.0024(9) -0.0002(9) 0.0001(9)
O3 O2- 0.0144(10) 0.0175(11) 0.0079(10) 0.0019(8) -0.0016(9) 0.0002(9)
O4 O2- 0.0136(11) 0.0177(12) 0.0158(11) 0.0003(9) -0.0010(10) 0.0037(9)
O5 O2- 0.0188(12) 0.0159(11) 0.0187(12) -0.0014(9) 0.0034(10) 0.0009(10)
O6 O2- 0.0315(13) 0.0134(11) 0.0121(11) -0.0026(9) -0.0031(10) -0.0001(9)
O7 O2- 0.0421(15) 0.0181(12) 0.0134(12) -0.0087(10) -0.0082(11) 0.0020(10)
O8 O2- 0.0133(11) 0.0188(11) 0.0133(12) 0.0025(8) -0.0014(9) -0.0028(10)
O9 O2- 0.0162(12) 0.0237(13) 0.0127(12) 0.0014(9) -0.0003(9) -0.0030(9)
B1 B3+ 0.0165(18) 0.0174(19) 0.012(2) -0.0050(14) 0.0014(14) 0.0015(15)
B2 B3+ 0.0150(18) 0.0132(17) 0.0093(18) -0.0015(14) -0.0001(13) 0.0035(13)
B3 B3+ 0.0157(19) 0.0134(18) 0.016(2) -0.0008(13) -0.0003(14) 0.0015(15)
B4 B3+ 0.0172(18) 0.0179(19) 0.0120(19) -0.0015(14) -0.0011(15) 0.0030(14)
B5 B3+ 0.0148(18) 0.0170(18) 0.0139(19) 0.0011(14) 0.0005(14) -0.0009(15)
B6 B3+ 0.0092(19) 0.0092(19) 0.013(3) 0. 0. 0.
#End of TTdata_253902-ICSD