
#(C) 2019 by FIZ Karlsruhe - Leibniz Institute for Information Infrastructure.  All rights reserved.
data_253987-ICSD
_database_code_ICSD 253987
_audit_creation_date 2018-02-01
_chemical_name_systematic 'Sodium dysprosium cobalt tungsten oxide (1/1/1/1/6)'
_chemical_formula_structural 'Na Dy Co W O6'
_chemical_formula_sum 'Co1 Dy1 Na1 O6 W1'
_chemical_name_structure_type Ca3UO6
_exptl_crystal_density_diffrn 7.54
_cell_measurement_temperature 300.
_publ_section_title

;
Structural study of a doubly ordered perovskite family NaLnCoWO6 (Ln = Y, La,
Pr, Nd, Sm, Eu, Gd, Tb, Dy, Ho, Er, Yb): Hybrid Improper Ferroelectricity in
nine new members
;
loop_
_citation_id
_citation_journal_full
_citation_year
_citation_journal_volume
_citation_page_first
_citation_page_last
_citation_journal_id_ASTM
primary 'Inorganic Chemistry' 2017 56 8478 8489 INOCAJ
loop_
_publ_author_name
'Zuo, Peng'
'Colin, Claire V.'
'Klein, Holger'
'Bordet, Pierre'
'Suard, Emmanuelle'
'Elkaim, Erik'
'Darie, Celine'
_cell_length_a 5.363280(7)
_cell_length_b 5.521977(7)
_cell_length_c 7.797602(11)
_cell_angle_alpha 90.
_cell_angle_beta 90.29855(9)
_cell_angle_gamma 90.
_cell_volume 230.93
_cell_formula_units_Z 2
_symmetry_space_group_name_H-M 'P 1 21 1'
_symmetry_Int_Tables_number 4
_refine_ls_R_factor_all 0.0773
loop_
_symmetry_equiv_pos_site_id
_symmetry_equiv_pos_as_xyz
1 '-x, y+1/2, -z'
2 'x, y, z'
loop_
_atom_type_symbol
_atom_type_oxidation_number
Na1+ 1
Dy3+ 3
Co2+ 2
W6+ 6
O2- -2
loop_
_atom_site_label
_atom_site_type_symbol
_atom_site_symmetry_multiplicity
_atom_site_Wyckoff_symbol
_atom_site_fract_x
_atom_site_fract_y
_atom_site_fract_z
_atom_site_B_iso_or_equiv
_atom_site_occupancy
_atom_site_attached_hydrogens
Na1 Na1+ 2 a 0.2438(13) 0.7228(12) 0.0049(7) 0.0120(15) 1. 0
Dy1 Dy3+ 2 a 0.26459(18) 0.8114(3) 0.50044(11) 0.00886(20) 1. 0
Co1 Co2+ 2 a 0.7501(5) 0.7575(12) 0.2497(2) 0.0072(5) 1. 0
W1 W6+ 2 a 0.76166(13) 0.75 0.76455(7) 0.00734(12) 1. 0
O1 O2- 2 a 0.4748(17) 0.5553(19) 0.6991(14) 0.0058(8) 1. 0
O2 O2- 2 a 0.4467(20) 0.5257(18) 0.3096(15) 0.0058(8) 1. 0
O3 O2- 2 a 0.078(2) -0.0472(18) 0.2200(14) 0.0058(8) 1. 0
O4 O2- 2 a 0.0532(18) -0.0649(19) 0.7734(14) 0.0058(8) 1. 0
O5 O2- 2 a 0.8544(15) 0.7106(17) 0.5052(11) 0.0058(8) 1. 0
O6 O2- 2 a 0.6778(14) 0.7705(19) -0.0100(10) 0.0058(8) 1. 0
#End of TTdata_253987-ICSD