
#(C) 2019 by FIZ Karlsruhe - Leibniz Institute for Information Infrastructure.  All rights reserved.
data_253985-ICSD
_database_code_ICSD 253985
_audit_creation_date 2018-02-01
_chemical_name_systematic 'Sodium gadolinium cobalt tungsten oxide (1/1/1/1/6)'
_chemical_formula_structural 'Na Gd Co W O6'
_chemical_formula_sum 'Co1 Gd1 Na1 O6 W1'
_chemical_name_structure_type Ca3UO6
_exptl_crystal_density_diffrn 7.39
_cell_measurement_temperature 300.
_publ_section_title

;
Structural study of a doubly ordered perovskite family NaLnCoWO6 (Ln = Y, La,
Pr, Nd, Sm, Eu, Gd, Tb, Dy, Ho, Er, Yb): Hybrid Improper Ferroelectricity in
nine new members
;
loop_
_citation_id
_citation_journal_full
_citation_year
_citation_journal_volume
_citation_page_first
_citation_page_last
_citation_journal_id_ASTM
primary 'Inorganic Chemistry' 2017 56 8478 8489 INOCAJ
loop_
_publ_author_name
'Zuo, Peng'
'Colin, Claire V.'
'Klein, Holger'
'Bordet, Pierre'
'Suard, Emmanuelle'
'Elkaim, Erik'
'Darie, Celine'
_cell_length_a 5.400225(16)
_cell_length_b 5.523306(18)
_cell_length_c 7.82229(3)
_cell_angle_alpha 90.
_cell_angle_beta 90.2976(2)
_cell_angle_gamma 90.
_cell_volume 233.31
_cell_formula_units_Z 2
_symmetry_space_group_name_H-M 'P 1 21 1'
_symmetry_Int_Tables_number 4
_refine_ls_R_factor_all 0.0709
loop_
_symmetry_equiv_pos_site_id
_symmetry_equiv_pos_as_xyz
1 '-x, y+1/2, -z'
2 'x, y, z'
loop_
_atom_type_symbol
_atom_type_oxidation_number
Na1+ 1
Gd3+ 3
Co2+ 2
W6+ 6
O2- -2
loop_
_atom_site_label
_atom_site_type_symbol
_atom_site_symmetry_multiplicity
_atom_site_Wyckoff_symbol
_atom_site_fract_x
_atom_site_fract_y
_atom_site_fract_z
_atom_site_B_iso_or_equiv
_atom_site_occupancy
_atom_site_attached_hydrogens
Na1 Na1+ 2 a 0.2478(15) 0.7289(13) 0.0047(8) 0.0030(14) 1. 0
Gd1 Gd3+ 2 a 0.2643(2) 0.8083(4) 0.50029(16) 0.0100(3) 1. 0
Co1 Co2+ 2 a 0.7459(6) 0.7618(14) 0.2463(3) 0.0047(6) 1. 0
W1 W6+ 2 a 0.75957(18) 0.75 0.76536(7) 0.00805(15) 1. 0
O1 O2- 2 a 0.4736(19) 0.544(2) 0.6925(19) 0.0065(9) 1. 0
O2 O2- 2 a 0.448(2) 0.526(2) 0.304(2) 0.0065(9) 1. 0
O3 O2- 2 a 0.064(2) -0.020(2) 0.2103(17) 0.0065(9) 1. 0
O4 O2- 2 a 0.0424(20) -0.057(2) 0.7877(17) 0.0065(9) 1. 0
O5 O2- 2 a 0.8582(16) 0.6858(18) 0.5002(13) 0.0065(9) 1. 0
O6 O2- 2 a 0.6643(14) 0.751(2) -0.0126(10) 0.0065(9) 1. 0
#End of TTdata_253985-ICSD