
#(C) 2019 by FIZ Karlsruhe - Leibniz Institute for Information Infrastructure.  All rights reserved.
data_254476-ICSD
_database_code_ICSD 254476
_audit_creation_date 2018-02-01
_chemical_name_systematic 'Nonasodium aluminium hexakis(molybdate)'
_chemical_formula_structural 'Na9 Al (Mo O4)6'
_chemical_formula_sum 'Al1 Mo6 Na9 O24'
_exptl_crystal_density_diffrn 3.32
_cell_measurement_temperature 293.
_publ_section_title
'New solid electrolyte Na9Al(MoO4)6. Structure and Na+ ion conductivity'
loop_
_citation_id
_citation_journal_full
_citation_year
_citation_journal_volume
_citation_page_first
_citation_page_last
_citation_journal_id_ASTM
primary 'Chemistry of Materials' 2017 29 8901 8913 CMATEX
loop_
_publ_author_name
'Savina, Aleksandra A.'
'Morozov, Vladimir A.'
'Buzlukov, Anton L.'
'Arapova, Irina Yu.'
'Stefanovich, Sergey Yu.'
'Baklanova, Yana V.'
'Denisova, Tatiana A.'
'Medvedeva, Nadezhda I.'
'Bardet, Michel'
'Hadermann, Joke'
'Lazoryak, Bogdan I.'
'Khaikina, Elena G.'
_cell_length_a 15.4067(3)
_cell_length_b 14.6428(3)
_cell_length_c 10.6250(2)
_cell_angle_alpha 90
_cell_angle_beta 93.9910(17)
_cell_angle_gamma 90
_cell_volume 2391.15
_cell_formula_units_Z 4
_symmetry_space_group_name_H-M 'C 1 2/c 1'
_symmetry_Int_Tables_number 15
_refine_ls_R_factor_all 0.0348
loop_
_symmetry_equiv_pos_site_id
_symmetry_equiv_pos_as_xyz
1 'x, -y, z+1/2'
2 '-x, -y, -z'
3 '-x, y, -z+1/2'
4 'x, y, z'
5 'x+1/2, -y+1/2, z+1/2'
6 '-x+1/2, -y+1/2, -z'
7 '-x+1/2, y+1/2, -z+1/2'
8 'x+1/2, y+1/2, z'
loop_
_atom_type_symbol
_atom_type_oxidation_number
Al3+ 3
Na1+ 1
Mo6+ 6
O2- -2
loop_
_atom_site_label
_atom_site_type_symbol
_atom_site_symmetry_multiplicity
_atom_site_Wyckoff_symbol
_atom_site_fract_x
_atom_site_fract_y
_atom_site_fract_z
_atom_site_B_iso_or_equiv
_atom_site_occupancy
_atom_site_attached_hydrogens
Al1 Al3+ 4 e 0 0.255(4) 0.25 0.001(4) 1 0
Na1 Na1+ 4 e 0 0.035(3) 0.25 0.018(2) 1 0
Na2 Na1+ 8 f 0.6260(19) 0.858(2) 0.469(3) 0.018(2) 1 0
Na3 Na1+ 8 f 0.306(2) 0.525(2) 0.469(3) 0.018(2) 1 0
Na4 Na1+ 8 f 0.421(2) 0.858(2) 0.678(3) 0.018(2) 1 0
Na5 Na1+ 8 f 0.688(3) 0.368(3) 0.221(3) 0.018(2) 1 0
Mo1 Mo6+ 8 f 0.5135(6) 0.6487(6) 0.9592(8) 0.0028(4) 1 0
Mo2 Mo6+ 8 f 0.7003(6) 0.6562(6) 0.3279(7) 0.0028(4) 1 0
Mo3 Mo6+ 8 f 0.6007(6) 0.9393(6) 0.1334(9) 0.0028(4) 1 0
O1 O2- 8 f 0.489(2) 0.755(2) 0.890(4) 0.0008(20) 1 0
O2 O2- 8 f 0.621(2) 0.618(3) 0.907(3) 0.0008(20) 1 0
O3 O2- 8 f 0.435(3) 0.582(3) 0.887(4) 0.0008(20) 1 0
O4 O2- 8 f 0.540(3) 0.657(3) 0.135(3) 0.0008(20) 1 0
O5 O2- 8 f 0.659(2) 0.548(2) 0.268(3) 0.0008(20) 1 0
O6 O2- 8 f 0.8012(19) 0.7112(19) 0.287(3) 0.0008(20) 1 0
O7 O2- 8 f 0.728(2) 0.6672(17) 0.498(3) 0.0008(20) 1 0
O8 O2- 8 f 0.613(2) 0.736(2) 0.306(4) 0.0008(20) 1 0
O9 O2- 8 f 0.674(2) 0.938(2) 0.273(4) 0.0008(20) 1 0
O10 O2- 8 f 0.6833(18) 0.912(2) 1.010(3) 0.0008(20) 1 0
O11 O2- 8 f 0.547(3) 0.054(2) 0.143(4) 0.0008(20) 1 0
O12 O2- 8 f 0.523(3) 0.848(3) 0.126(5) 0.0008(20) 1 0
#End of TTdata_254476-ICSD