
#(C) 2019 by FIZ Karlsruhe - Leibniz Institute for Information Infrastructure.  All rights reserved.
data_254415-ICSD
_database_code_ICSD 254415
_audit_creation_date 2018-02-01
_chemical_name_systematic 'Disodium dicesium dotriacosaoxo-icosaborate'
_chemical_formula_structural 'Na2 Cs2 B20 O32'
_chemical_formula_sum 'B20 Cs2 Na2 O32'
_exptl_crystal_density_diffrn 2.18
_cell_measurement_temperature 123.
_publ_section_title

;
Three mixed-alkaline borates. Na2M2B20O32 (M = Rb, Cs) with two
interpenetrating three-dimensional B-O networks and Li4Cs4B40O64 with
fundamental building block B40O77
;
loop_
_citation_id
_citation_journal_full
_citation_year
_citation_journal_volume
_citation_page_first
_citation_page_last
_citation_journal_id_ASTM
primary 'Inorganic Chemistry' 2017 56 13456 13463 INOCAJ
loop_
_publ_author_name
'Abudoureheman, Maierhaba'
'Han, Shujuan'
'Wang, Ying'
'Liu, Qiong'
'Yang, Zhihua'
'Pan, Shilie'
_cell_length_a 12.2701(3)
_cell_length_b 12.2905(3)
_cell_length_c 11.5174(3)
_cell_angle_alpha 90.
_cell_angle_beta 114.285(2)
_cell_angle_gamma 90.
_cell_volume 1583.19
_cell_formula_units_Z 2
_symmetry_space_group_name_H-M 'C 1 2/c 1'
_symmetry_Int_Tables_number 15
_refine_ls_R_factor_all 0.0327
loop_
_symmetry_equiv_pos_site_id
_symmetry_equiv_pos_as_xyz
1 'x, -y, z+1/2'
2 '-x, -y, -z'
3 '-x, y, -z+1/2'
4 'x, y, z'
5 'x+1/2, -y+1/2, z+1/2'
6 '-x+1/2, -y+1/2, -z'
7 '-x+1/2, y+1/2, -z+1/2'
8 'x+1/2, y+1/2, z'
loop_
_atom_type_symbol
_atom_type_oxidation_number
Cs1+ 1
Na1+ 1
B3+ 3
O2- -2
loop_
_atom_site_label
_atom_site_type_symbol
_atom_site_symmetry_multiplicity
_atom_site_Wyckoff_symbol
_atom_site_fract_x
_atom_site_fract_y
_atom_site_fract_z
_atom_site_B_iso_or_equiv
_atom_site_occupancy
_atom_site_attached_hydrogens
Cs1 Cs1+ 4 e 0. 0.35274(3) 0.25 0.01602(11) 1 0
Na1 Na1+ 4 e 0. 0.00269(16) 0.25 0.0141(4) 1 0
B1 B3+ 8 f 0.2616(4) 0.1247(3) 0.4270(4) 0.0123(9) 1 0
B2 B3+ 8 f 0.0356(4) -0.1300(3) 0.4832(4) 0.0112(8) 1 0
B3 B3+ 8 f 0.3476(4) 0.2671(3) 0.3531(4) 0.0125(9) 1 0
B4 B3+ 8 f 0.2109(4) -0.0199(3) 0.5532(4) 0.0125(9) 1 0
B5 B3+ 8 f 0.1926(3) -0.1557(3) 0.6998(4) 0.0115(8) 1 0
O1 O2- 8 f 0.2582(2) -0.0729(2) 0.6637(2) 0.0139(5) 1 0
O2 O2- 8 f -0.0680(2) -0.15196(19) 0.3779(2) 0.0117(5) 1 0
O3 O2- 8 f 0.2740(2) 0.0648(2) 0.5325(2) 0.0143(5) 1 0
O4 O2- 8 f 0.0741(2) -0.17899(18) 0.5970(2) 0.0111(5) 1 0
O5 O2- 8 f 0.2623(2) 0.25617(19) 0.2352(2) 0.0116(5) 1 0
O6 O2- 8 f 0.3518(2) 0.2000(2) 0.4508(2) 0.0153(6) 1 0
O7 O2- 8 f 0.1003(2) -0.04641(19) 0.4597(2) 0.0120(5) 1 0
O8 O2- 8 f 0.1723(2) 0.11280(19) 0.3107(2) 0.0116(5) 1 0
loop_
_atom_site_aniso_label
_atom_site_aniso_type_symbol
_atom_site_aniso_U_11
_atom_site_aniso_U_22
_atom_site_aniso_U_33
_atom_site_aniso_U_12
_atom_site_aniso_U_13
_atom_site_aniso_U_23
Cs1 Cs1+ 0.01358(17) 0.01594(18) 0.01196(19) 0. -0.00141(13) 0.
Na1 Na1+ 0.0120(10) 0.0144(11) 0.0113(11) 0. 0.0003(9) 0.
B1 B3+ 0.0114(19) 0.013(2) 0.009(2) -0.0004(16) 0.0006(17) 0.0021(15)
B2 B3+ 0.0142(19) 0.008(2) 0.012(2) 0.0004(16) 0.0063(17) -0.0013(15)
B3 B3+ 0.013(2) 0.012(2) 0.011(2) 0.0004(16) 0.0037(18) -0.0011(16)
B4 B3+ 0.012(2) 0.011(2) 0.013(2) 0.0004(16) 0.0036(18) -0.0010(16)
B5 B3+ 0.0136(19) 0.009(2) 0.009(2) -0.0019(16) 0.0018(17) -0.0019(15)
O1 O2- 0.0097(12) 0.0150(14) 0.0102(14) -0.0025(10) -0.0030(11) 0.0045(10)
O2 O2- 0.0101(11) 0.0124(12) 0.0080(12) -0.0030(10) -0.0010(10) 0.0015(10)
O3 O2- 0.0136(13) 0.0145(13) 0.0092(13) -0.0068(10) -0.0011(11) 0.0036(10)
O4 O2- 0.0086(12) 0.0117(13) 0.0082(13) -0.0025(10) -0.0015(10) 0.0025(10)
O5 O2- 0.0120(12) 0.0109(13) 0.0074(13) -0.0035(10) -0.0005(10) -0.0020(10)
O6 O2- 0.0131(13) 0.0173(14) 0.0086(14) -0.0078(11) -0.0024(11) 0.0023(10)
O7 O2- 0.0096(12) 0.0118(13) 0.0102(13) -0.0031(10) -0.0004(10) 0.0031(10)
O8 O2- 0.0112(12) 0.0125(13) 0.0067(13) -0.0031(10) -0.0009(10) -0.0007(9)
#End of TTdata_254415-ICSD