
#(C) 2019 by FIZ Karlsruhe - Leibniz Institute for Information Infrastructure.  All rights reserved.
data_254515-ICSD
_database_code_ICSD 254515
_audit_creation_date 2018-02-01
_chemical_name_systematic 'Disodium barium iron(II) bis(vanadate)'
_chemical_formula_structural 'Na2 Ba Fe (V O4)2'
_chemical_formula_sum 'Ba1 Fe1 Na2 O8 V2'
_chemical_name_structure_type K3Na(SO4)2
_exptl_crystal_density_diffrn 4.08
_cell_measurement_temperature 300.
_publ_section_title

;
Investigation of a structural phase transition and magnetic structure of
Na2BaFe(VO4)2. A triangular magnetic lattice with a ferromagnetic ground state
;
loop_
_citation_id
_citation_journal_full
_citation_year
_citation_journal_volume
_citation_page_first
_citation_page_last
_citation_journal_id_ASTM
primary 'Inorganic Chemistry' 2017 56 14842 14849 INOCAJ
loop_
_publ_author_name
'Sanjeewa, Liurukara D.'
'Garlea, Vasile O.'
'McGuire, Michael A.'
'Frontzek, Matthias'
'McMillen, Colin D.'
'Fulle, Kyle'
'Kolis, Joseph W.'
_cell_length_a 5.5680(4)
_cell_length_b 5.5680(4)
_cell_length_c 7.1030(5)
_cell_angle_alpha 90
_cell_angle_beta 90
_cell_angle_gamma 120
_cell_volume 190.7
_cell_formula_units_Z 1
_symmetry_space_group_name_H-M 'P -3 m 1'
_symmetry_Int_Tables_number 164
_refine_ls_R_factor_all 0.0316
loop_
_symmetry_equiv_pos_site_id
_symmetry_equiv_pos_as_xyz
1 'x-y, -y, -z'
2 '-x, -x+y, -z'
3 'y, x, -z'
4 'x-y, x, -z'
5 'y, -x+y, -z'
6 '-x, -y, -z'
7 '-x+y, y, z'
8 'x, x-y, z'
9 '-y, -x, z'
10 '-x+y, -x, z'
11 '-y, x-y, z'
12 'x, y, z'
loop_
_atom_type_symbol
_atom_type_oxidation_number
Na1+ 1
Ba2+ 2
Fe2+ 2
V5+ 5
O2- -2
loop_
_atom_site_label
_atom_site_type_symbol
_atom_site_symmetry_multiplicity
_atom_site_Wyckoff_symbol
_atom_site_fract_x
_atom_site_fract_y
_atom_site_fract_z
_atom_site_B_iso_or_equiv
_atom_site_occupancy
_atom_site_attached_hydrogens
Na1 Na1+ 2 d -0.3333 0.3333 -0.3338(9) 0.0177(13) 1 0
Ba1 Ba2+ 1 a 0. 0. 0. 0.0152(7) 1 0
Fe1 Fe2+ 1 b 0. 0. 0.5 0.0087(7) 1 0
V1 V5+ 2 d -0.6667 0.6667 -0.2342(3) 0.0066(7) 1 0
O1 O2- 2 d -0.3333 0.3333 -0.0021(13) 0.019(2) 1 0
O2 O2- 6 i 0.3384(15) 0.1692(8) 0.3166(10) 0.062(3) 1 0
loop_
_atom_site_aniso_label
_atom_site_aniso_type_symbol
_atom_site_aniso_U_11
_atom_site_aniso_U_22
_atom_site_aniso_U_33
_atom_site_aniso_U_12
_atom_site_aniso_U_13
_atom_site_aniso_U_23
Na1 Na1+ 0.020(2) 0.020(2) 0.013(3) 0.0100(10) 0. 0.
Ba1 Ba2+ 0.0197(7) 0.0197(7) 0.0062(7) 0.0099(4) 0. 0.
Fe1 Fe2+ 0.0088(9) 0.0088(9) 0.0085(12) 0.0044(5) 0. 0.
V1 V5+ 0.0072(8) 0.0072(8) 0.0054(11) 0.0036(4) 0. 0.
O1 O2- 0.025(4) 0.025(4) 0.009(4) 0.0124(18) 0. 0.
O2 O2- 0.010(3) 0.121(7) 0.020(3) 0.0050(17) 0.004(3) 0.0021(13)
#End of TTdata_254515-ICSD