
#(C) 2019 by FIZ Karlsruhe - Leibniz Institute for Information Infrastructure.  All rights reserved.
data_255776-ICSD
_database_code_ICSD 255776
_audit_creation_date 2018-08-01
_chemical_name_systematic 'Dilsodium germanium hexakis(iodate(V))'
_chemical_formula_structural 'Na2 Ge (I O3)6'
_chemical_formula_sum 'Ge1 I6 Na2 O18'
_exptl_crystal_density_diffrn 4.7
_cell_measurement_temperature 293.
_publ_section_title

;
A series of mixed-metal germanium iodates as second-order nonlinear optical
materials
;
loop_
_citation_id
_citation_journal_full
_citation_year
_citation_journal_volume
_citation_page_first
_citation_page_last
_citation_journal_id_ASTM
primary 'Chemistry of Materials' 2018 30 2443 2452 CMATEX
loop_
_publ_author_name
'Mao, Fei-Fei'
'Hu, Chun-Li'
'Chen, Jin'
'Mao, Jiang-Gao'
_cell_length_a 9.4604(4)
_cell_length_b 9.4604(4)
_cell_length_c 5.3260(3)
_cell_angle_alpha 90.
_cell_angle_beta 90.
_cell_angle_gamma 120.
_cell_volume 412.81
_cell_formula_units_Z 1
_symmetry_space_group_name_H-M 'P 63'
_symmetry_Int_Tables_number 173
_refine_ls_R_factor_all 0.0296
loop_
_symmetry_equiv_pos_site_id
_symmetry_equiv_pos_as_xyz
1 'x-y, x, z+1/2'
2 'y, -x+y, z+1/2'
3 '-x, -y, z+1/2'
4 '-x+y, -x, z'
5 '-y, x-y, z'
6 'x, y, z'
loop_
_atom_type_symbol
_atom_type_oxidation_number
Na1+ 1
Ge4+ 4
I5+ 5
O2- -2
loop_
_atom_site_label
_atom_site_type_symbol
_atom_site_symmetry_multiplicity
_atom_site_Wyckoff_symbol
_atom_site_fract_x
_atom_site_fract_y
_atom_site_fract_z
_atom_site_B_iso_or_equiv
_atom_site_occupancy
_atom_site_attached_hydrogens
Na1 Na1+ 2 b 0.6667 0.3333 0.0441(10) 0.0166(15) 1 0
Ge1 Ge4+ 2 a 0. 0. 0.1430(5) 0.0117(6) 0.5 0
I1 I5+ 6 c 0.30561(5) -0.03999(5) -0.0062(3) 0.0153(2) 1 0
O1 O2- 6 c 0.4816(8) 0.0955(8) -0.1809(12) 0.0207(13) 1 0
O2 O2- 6 c 0.2182(8) -0.2154(7) -0.2037(12) 0.0185(13) 1 0
O3 O2- 6 c 0.1797(7) 0.0525(8) -0.1090(13) 0.0335(18) 1 0
loop_
_atom_site_aniso_label
_atom_site_aniso_type_symbol
_atom_site_aniso_U_11
_atom_site_aniso_U_22
_atom_site_aniso_U_33
_atom_site_aniso_U_12
_atom_site_aniso_U_13
_atom_site_aniso_U_23
Na1 Na1+ 0.0123(15) 0.0123(15) 0.025(4) 0.0062(7) 0. 0.
Ge1 Ge4+ 0.0105(7) 0.0105(7) 0.0141(13) 0.0053(4) 0. 0.
I1 I5+ 0.0153(3) 0.0125(3) 0.0139(3) 0.00387(19) 0.0017(3) -0.0024(4)
O1 O2- 0.015(3) 0.024(3) 0.022(3) 0.009(3) 0.005(3) 0.000(3)
O2 O2- 0.021(3) 0.013(3) 0.022(3) 0.010(3) -0.007(3) -0.009(2)
O3 O2- 0.019(3) 0.019(3) 0.066(5) 0.012(3) -0.010(3) -0.023(3)
#End of TTdata_255776-ICSD