
#(C) 2019 by FIZ Karlsruhe - Leibniz Institute for Information Infrastructure.  All rights reserved.
data_255813-ICSD
_database_code_ICSD 255813
_audit_creation_date 2018-08-01
_chemical_name_systematic 'Rubidium sodium magnesium diphosphate - LT'
_chemical_formula_structural 'Rb Na Mg P2 O7'
_chemical_formula_sum 'Mg1 Na1 O7 P2 Rb1'
_exptl_crystal_density_diffrn 2.82
_cell_measurement_temperature 298.
_publ_section_title

;
Non-centrosymmetric RbNaMgP2O7 with unprecedented thermo-induced enhancement
of second harmonic generation
;
loop_
_citation_id
_citation_journal_full
_citation_year
_citation_journal_volume
_citation_page_first
_citation_page_last
_citation_journal_id_ASTM
primary 'Journal of the American Chemical Society' 2018 140 1592 1595 JACSAT
loop_
_publ_author_name
'Zhao, Sangen'
'Yang, Xiaoyan'
'Yang, Yi'
'Kuang, Xiaojun'
'Lu, Fengqi'
'Shan, Pai'
'Sun, Zhihua'
'Lin, Zheshuai'
'Hong, Maochun'
'Luo, Junhua'
_cell_length_a 14.7162(9)
_cell_length_b 5.1614(2)
_cell_length_c 9.5143(5)
_cell_angle_alpha 90.
_cell_angle_beta 90.
_cell_angle_gamma 90.
_cell_volume 722.67
_cell_formula_units_Z 4
_symmetry_space_group_name_H-M 'P n a 21'
_symmetry_Int_Tables_number 33
_refine_ls_R_factor_all 0.0288
loop_
_symmetry_equiv_pos_site_id
_symmetry_equiv_pos_as_xyz
1 'x+1/2, -y+1/2, z'
2 '-x+1/2, y+1/2, z+1/2'
3 '-x, -y, z+1/2'
4 'x, y, z'
loop_
_atom_type_symbol
_atom_type_oxidation_number
Rb1+ 1
P5+ 5
Mg2+ 2
O2- -2
Na1+ 1
O2- -2
P5+ 5
loop_
_atom_site_label
_atom_site_type_symbol
_atom_site_symmetry_multiplicity
_atom_site_Wyckoff_symbol
_atom_site_fract_x
_atom_site_fract_y
_atom_site_fract_z
_atom_site_B_iso_or_equiv
_atom_site_occupancy
_atom_site_attached_hydrogens
Rb1 Rb1+ 4 a 0.09374(3) 0.01114(8) 0.85803(6) 0.02436(16) 1 0
P1 P5+ 4 a 0.05365(9) 0.48767(19) 0.47704(13) 0.0118(3) 1 0
Mg1 Mg2+ 4 a 0.18381(13) 0.0072(2) 0.44477(16) 0.0116(4) 1 0
O1 O2- 4 a 0.2347(2) 0.7845(5) 0.6052(4) 0.0158(7) 1 0
O2 O2- 4 a 0.1076(2) 0.4610(5) 0.6282(4) 0.0169(8) 1 0
O3 O2- 4 a 0.2414(2) 0.4205(6) 0.7827(4) 0.0218(7) 1 0
O4 O2- 4 a 0.2567(2) 0.3150(6) 0.5280(4) 0.0165(7) 1 0
O5 O2- 4 a -0.0442(3) 0.4794(6) 0.5136(4) 0.0242(9) 1 0
Na1 Na1+ 4 a 0.35438(15) 0.0406(3) 0.6897(2) 0.0206(5) 1 0
O6 O2- 4 a 0.0856(2) 0.7383(6) 0.4124(3) 0.0190(8) 1 0
O7 O2- 4 a 0.0867(2) 0.2633(6) 0.3885(3) 0.0204(8) 1 0
P2 P5+ 4 a 0.21669(9) 0.50028(18) 0.63562(13) 0.0115(3) 1 0
loop_
_atom_site_aniso_label
_atom_site_aniso_type_symbol
_atom_site_aniso_U_11
_atom_site_aniso_U_22
_atom_site_aniso_U_33
_atom_site_aniso_U_12
_atom_site_aniso_U_13
_atom_site_aniso_U_23
Rb1 Rb1+ 0.0194(3) 0.0227(3) 0.0310(3) 0.00133(16) 0.0035(3) 0.0064(3)
P1 P5+ 0.0101(6) 0.0103(5) 0.0151(6) -0.0005(4) -0.0007(5) 0.0006(4)
Mg1 Mg2+ 0.0152(9) 0.0078(7) 0.0118(8) 0.0004(6) 0.0002(7) -0.0007(5)
O1 O2- 0.0197(17) 0.0097(15) 0.0181(15) -0.0013(13) -0.0048(15) -0.0006(12)
O2 O2- 0.0169(18) 0.0177(17) 0.0163(19) -0.0030(13) 0.0028(16) 0.0025(13)
O3 O2- 0.028(2) 0.0181(14) 0.0190(16) -0.0045(16) -0.0076(17) 0.0037(16)
O4 O2- 0.0153(17) 0.0135(15) 0.0205(15) 0.0023(14) -0.0005(14) -0.0026(13)
O5 O2- 0.017(2) 0.034(2) 0.021(2) -0.0023(14) -0.0021(18) 0.0018(14)
Na1 Na1+ 0.0211(11) 0.0203(9) 0.0205(11) -0.0008(7) 0.0001(10) 0.0001(8)
O6 O2- 0.0210(19) 0.0114(16) 0.0246(19) -0.0034(13) -0.0091(14) 0.0043(12)
O7 O2- 0.0246(19) 0.0133(15) 0.023(2) 0.0033(12) -0.0093(15) -0.0029(14)
P2 P5+ 0.0135(7) 0.0095(5) 0.0116(6) -0.0011(4) -0.0002(5) 0.0010(4)
#End of TTdata_255813-ICSD