
#(C) 2019 by FIZ Karlsruhe - Leibniz Institute for Information Infrastructure.  All rights reserved.
data_256031-ICSD
_database_code_ICSD 256031
_audit_creation_date 2019-02-01
_chemical_name_systematic 'Sodium nonafluoridodititanate(IV) hydrogenfluoride'
_chemical_formula_structural 'Na (Ti2 F9) (H F)'
_chemical_formula_sum 'H1 F10 Na1 Ti2'
_exptl_crystal_density_diffrn 2.78
_cell_measurement_temperature 200.
_publ_section_title
'Increasing structural dimensionality of alkali metal fluoridotitanates(IV)'
loop_
_citation_id
_citation_journal_full
_citation_year
_citation_journal_volume
_citation_page_first
_citation_page_last
_citation_journal_id_ASTM
primary 'Inorganic Chemistry' 2018 57 1976 1987 INOCAJ
loop_
_publ_author_name
'Shlyapnikov, Igor M.'
'Goreshnik, Evgeny A.'
'Mazej, Zoran'
_cell_length_a 5.3084(3)
_cell_length_b 10.0736(6)
_cell_length_c 13.8566(8)
_cell_angle_alpha 90
_cell_angle_beta 90
_cell_angle_gamma 90
_cell_volume 740.97
_cell_formula_units_Z 4
_symmetry_space_group_name_H-M 'P n m a'
_symmetry_Int_Tables_number 62
_refine_ls_R_factor_all 0.0416
loop_
_symmetry_equiv_pos_site_id
_symmetry_equiv_pos_as_xyz
1 'x+1/2, y, -z+1/2'
2 'x, -y+1/2, z'
3 '-x+1/2, y+1/2, z+1/2'
4 '-x, -y, -z'
5 '-x+1/2, -y, z+1/2'
6 '-x, y+1/2, -z'
7 'x+1/2, -y+1/2, -z+1/2'
8 'x, y, z'
loop_
_atom_type_symbol
_atom_type_oxidation_number
Ti4+ 4
Na1+ 1
F1- -1
H1+ 1
F1- -1
loop_
_atom_site_label
_atom_site_type_symbol
_atom_site_symmetry_multiplicity
_atom_site_Wyckoff_symbol
_atom_site_fract_x
_atom_site_fract_y
_atom_site_fract_z
_atom_site_B_iso_or_equiv
_atom_site_occupancy
_atom_site_attached_hydrogens
Ti1 Ti4+ 8 d 0.86347(10) 0.43495(5) 0.35134(4) 0.01315(19) 1 0
Na1 Na1+ 4 c 0.3719(3) 0.25 0.52308(14) 0.0205(4) 1 0
F1 F1- 4 c 0.6633(7) 0.25 0.6488(3) 0.0449(9) 1 0
H1 H1+ 4 c 0.826(5) 0.25 0.659(5) 0.054 1 0
F2 F1- 8 d 0.6513(3) 0.3943(2) 0.44523(14) 0.0226(4) 1 0
F3 F1- 8 d 1.1359(4) 0.3924(2) 0.41793(14) 0.0235(5) 1 0
F4 F1- 8 d 0.8703(4) 0.60953(19) 0.37393(14) 0.0218(4) 1 0
F5 F1- 8 d 1.0792(3) 0.46087(18) 0.23730(13) 0.0191(4) 1 0
F6 F1- 4 c 0.8436(5) 0.25 0.30491(18) 0.0165(5) 1 0
loop_
_atom_site_aniso_label
_atom_site_aniso_type_symbol
_atom_site_aniso_U_11
_atom_site_aniso_U_22
_atom_site_aniso_U_33
_atom_site_aniso_U_12
_atom_site_aniso_U_13
_atom_site_aniso_U_23
Ti1 Ti4+ 0.0125(3) 0.0130(3) 0.0139(3) -0.00035(18) -0.00033(19) -0.00045(18)
Na1 Na1+ 0.0189(9) 0.0204(9) 0.0223(9) 0. 0.0019(7) 0.
F1 F1- 0.0259(18) 0.063(3) 0.046(2) 0. -0.0062(15) 0.
F2 F1- 0.0217(10) 0.0254(10) 0.0206(9) -0.0018(8) 0.0056(8) -0.0002(8)
F3 F1- 0.0216(10) 0.0252(10) 0.0236(10) 0.0012(8) -0.0091(8) 0.0009(8)
F4 F1- 0.0283(11) 0.0141(9) 0.0229(10) 0.0004(7) 0.0009(8) -0.0026(7)
F5 F1- 0.0198(9) 0.0202(8) 0.0174(9) 0.0005(7) 0.0065(7) 0.0008(7)
F6 F1- 0.0193(13) 0.0109(11) 0.0193(13) 0. -0.0001(10) 0.
#End of TTdata_256031-ICSD