
#(C) 2019 by FIZ Karlsruhe - Leibniz Institute for Information Infrastructure.  All rights reserved.
data_256241-ICSD
_database_code_ICSD 256241
_audit_creation_date 2019-02-01
_chemical_name_systematic
'Heptasodium cadmium dodecasulfido-pentaantimonate(III)'
_chemical_formula_structural 'Na7 Cd Sb5 S12'
_chemical_formula_sum 'Cd1 Na7 S12 Sb5'
_exptl_crystal_density_diffrn 3.51
_cell_measurement_temperature 296.
_publ_section_title

;
Remarkable multimember-ring configurations in a new family of Na7 M(II) Sb5
S12 (M(II) = Zn, Cd, Hg) exhibiting various three-dimensional tunnel
structures
;
loop_
_citation_id
_citation_journal_full
_citation_year
_citation_journal_volume
_citation_page_first
_citation_page_last
_citation_journal_id_ASTM
primary 'Chemical Communications (Cambridge, United Kingdom)' 2018 54 8269 8272
CHCOFS
loop_
_publ_author_name
'Wu, Kui'
'Zhang, Bingbing'
'Yang, Zhihua'
'Pan, Shilie'
_cell_length_a 14.531(2)
_cell_length_b 14.531(2)
_cell_length_c 9.845(3)
_cell_angle_alpha 90.
_cell_angle_beta 90.
_cell_angle_gamma 120.
_cell_volume 1800.26
_cell_formula_units_Z 3
_symmetry_space_group_name_H-M 'R -3 H'
_symmetry_Int_Tables_number 148
_refine_ls_R_factor_all 0.0336
loop_
_symmetry_equiv_pos_site_id
_symmetry_equiv_pos_as_xyz
1 'x-y, x, -z'
2 'y, -x+y, -z'
3 '-x, -y, -z'
4 '-x+y, -x, z'
5 '-y, x-y, z'
6 'x, y, z'
7 'x-y+2/3, x+1/3, -z+1/3'
8 'y+2/3, -x+y+1/3, -z+1/3'
9 '-x+2/3, -y+1/3, -z+1/3'
10 '-x+y+2/3, -x+1/3, z+1/3'
11 '-y+2/3, x-y+1/3, z+1/3'
12 'x+2/3, y+1/3, z+1/3'
13 'x-y+1/3, x+2/3, -z+2/3'
14 'y+1/3, -x+y+2/3, -z+2/3'
15 '-x+1/3, -y+2/3, -z+2/3'
16 '-x+y+1/3, -x+2/3, z+2/3'
17 '-y+1/3, x-y+2/3, z+2/3'
18 'x+1/3, y+2/3, z+2/3'
loop_
_atom_type_symbol
_atom_type_oxidation_number
Sb3+ 3
Cd2+ 2
Na1+ 1
S2- -2
loop_
_atom_site_label
_atom_site_type_symbol
_atom_site_symmetry_multiplicity
_atom_site_Wyckoff_symbol
_atom_site_fract_x
_atom_site_fract_y
_atom_site_fract_z
_atom_site_B_iso_or_equiv
_atom_site_occupancy
_atom_site_attached_hydrogens
Sb1 Sb3+ 18 f 0.54763(3) 0.15618(3) 0.00415(4) 0.02375(17) 0.83 0
Cd1 Cd2+ 18 f 0.54763(3) 0.15618(3) 0.00415(4) 0.02375(17) 0.17 0
Na1 Na1+ 3 a 0.6667 0.3333 0.3333 0.0188(12) 1 0
Na2 Na1+ 18 f 0.36222(18) 0.10515(17) 0.3391(2) 0.0227(5) 1 0
S1 S2- 18 f 0.42962(11) 0.00812(13) 0.14463(14) 0.0206(3) 1 0
S2 S2- 18 f 0.49858(11) 0.28625(11) 0.13871(14) 0.0180(3) 1 0
loop_
_atom_site_aniso_label
_atom_site_aniso_type_symbol
_atom_site_aniso_U_11
_atom_site_aniso_U_22
_atom_site_aniso_U_33
_atom_site_aniso_U_12
_atom_site_aniso_U_13
_atom_site_aniso_U_23
Sb1 Sb3+ 0.0212(3) 0.0214(3) 0.0231(3) 0.0065(2) 0.00039(17) 0.00738(17)
Cd1 Cd2+ 0.0212(3) 0.0214(3) 0.0231(3) 0.0065(2) 0.00039(17) 0.00738(17)
Na1 Na1+ 0.0179(17) 0.0179(17) 0.021(3) 0.0089(9) 0. 0.
Na2 Na1+ 0.0237(13) 0.0229(13) 0.0221(13) 0.0122(11) -0.0006(10) -0.0047(10)
S1 S2- 0.0207(8) 0.0256(8) 0.0176(7) 0.0131(6) -0.0004(6) -0.0011(6)
S2 S2- 0.0150(7) 0.0179(7) 0.0215(7) 0.0086(6) -0.0006(5) -0.0014(6)
#End of TTdata_256241-ICSD