
#(C) 2019 by FIZ Karlsruhe - Leibniz Institute for Information Infrastructure.  All rights reserved.
data_256220-ICSD
_database_code_ICSD 256220
_audit_creation_date 2019-02-01
_chemical_name_systematic 'Sodium pentarubidium tris(oxalato)-ferrate(III)'
_chemical_formula_structural 'Na Rb5 (Fe (C2 O4)3)2'
_chemical_formula_sum 'C12 Fe2 Na1 O24 Rb5'
_exptl_crystal_density_diffrn 2.76
_cell_measurement_temperature 293.
_publ_section_title

;
Spontaneous enantiomorphism in poly-phased alkaline salts of
trisÃ°(oxalato)ferrate(III): crystal structure of cubic NaRb5[Fe(C2O4)3]2
;
loop_
_citation_id
_citation_journal_full
_citation_year
_citation_journal_volume
_citation_page_first
_citation_page_last
_citation_journal_id_ASTM
primary 'Acta Crystallographica, Section E: Crystallographic Communications'
2018 74 905 909 ACSECI
loop_
_publ_author_name
'Piro, O.E.'
'Echeverria, G.A.'
'Baran, E.J.'
_cell_length_a 13.7995(3)
_cell_length_b 13.7995(3)
_cell_length_c 13.7995(3)
_cell_angle_alpha 90
_cell_angle_beta 90
_cell_angle_gamma 90
_cell_volume 2627.78
_cell_formula_units_Z 4
_symmetry_space_group_name_H-M 'P 41 3 2'
_symmetry_Int_Tables_number 213
_refine_ls_R_factor_all 0.0316
loop_
_symmetry_equiv_pos_site_id
_symmetry_equiv_pos_as_xyz
1 '-z+1/4, y+3/4, x+1/4'
2 'z+1/4, -y+1/4, x+3/4'
3 'z+3/4, y+1/4, -x+1/4'
4 '-z+3/4, -y+3/4, -x+3/4'
5 'y+3/4, x+1/4, -z+1/4'
6 '-y+1/4, x+3/4, z+1/4'
7 'y+1/4, -x+1/4, z+3/4'
8 '-y+3/4, -x+3/4, -z+3/4'
9 'x+1/4, -z+1/4, y+3/4'
10 'x+3/4, z+1/4, -y+1/4'
11 '-x+1/4, z+3/4, y+1/4'
12 '-x+3/4, -z+3/4, -y+3/4'
13 'z+1/2, -x+1/2, -y'
14 '-z+1/2, -x, y+1/2'
15 '-z, x+1/2, -y+1/2'
16 'z, x, y'
17 '-y, z+1/2, -x+1/2'
18 'y+1/2, -z+1/2, -x'
19 '-y+1/2, -z, x+1/2'
20 'y, z, x'
21 '-x+1/2, -y, z+1/2'
22 '-x, y+1/2, -z+1/2'
23 'x+1/2, -y+1/2, -z'
24 'x, y, z'
loop_
_atom_type_symbol
_atom_type_oxidation_number
C3+ 3
O2- -2
Fe3+ 3
Rb1+ 1
Na1+ 1
loop_
_atom_site_label
_atom_site_type_symbol
_atom_site_symmetry_multiplicity
_atom_site_Wyckoff_symbol
_atom_site_fract_x
_atom_site_fract_y
_atom_site_fract_z
_atom_site_B_iso_or_equiv
_atom_site_occupancy
_atom_site_attached_hydrogens
C1 C3+ 24 e 0.1366(5) 0.5569(4) 0.1362(5) 0.0228(14) 1 0
C2 C3+ 24 e 0.0522(5) 0.5213(5) 0.2007(5) 0.0256(15) 1 0
O1 O2- 24 e 0.1218(3) 0.5418(3) 0.0448(3) 0.0254(10) 1 0
O2 O2- 24 e -0.0240(3) 0.4977(3) 0.1533(3) 0.0291(10) 1 0
O3 O2- 24 e 0.2066(3) 0.5967(3) 0.1708(3) 0.0327(11) 1 0
O4 O2- 24 e 0.0621(4) 0.5170(4) 0.2882(4) 0.0422(14) 1 0
Fe1 Fe3+ 8 c -0.01047(6) 0.48953(6) 0.01047(6) 0.0218(4) 1 0
Rb1 Rb1+ 12 d 0.24391(5) 0.50609(5) 0.375 0.0291(2) 1 0
Rb2 Rb1+ 8 c -0.07858(6) 0.57858(6) 0.42142(6) 0.0451(4) 1 0
Na1 Na1+ 4 b 0.375 0.625 0.125 0.0234(12) 1 0
loop_
_atom_site_aniso_label
_atom_site_aniso_type_symbol
_atom_site_aniso_U_11
_atom_site_aniso_U_22
_atom_site_aniso_U_33
_atom_site_aniso_U_12
_atom_site_aniso_U_13
_atom_site_aniso_U_23
C1 C3+ 0.018(3) 0.024(3) 0.027(4) 0.007(3) -0.001(3) 0.001(3)
C2 C3+ 0.026(4) 0.034(4) 0.017(3) 0.006(3) 0.003(3) -0.001(3)
O1 O2- 0.023(2) 0.032(3) 0.022(3) -0.003(2) 0.002(2) -0.0003(18)
O2 O2- 0.020(2) 0.042(3) 0.025(3) -0.005(2) 0.0052(18) -0.005(2)
O3 O2- 0.022(3) 0.041(3) 0.036(3) -0.003(2) -0.005(2) 0.000(2)
O4 O2- 0.032(3) 0.069(4) 0.025(3) -0.001(3) 0.003(2) 0.002(3)
Fe1 Fe3+ 0.0218(4) 0.0218(4) 0.0218(4) 0.0003(4) -0.0003(4) -0.0003(4)
Rb1 Rb1+ 0.0292(3) 0.0292(3) 0.0290(5) 0.0020(4) -0.0047(3) -0.0047(3)
Rb2 Rb1+ 0.0451(4) 0.0451(4) 0.0451(4) -0.0124(4) 0.0124(4) -0.0124(4)
Na1 Na1+ 0.0234(12) 0.0234(12) 0.0234(12) -0.0014(15) -0.0014(15) 0.0014(15)
#End of TTdata_256220-ICSD