
#(C) 2019 by FIZ Karlsruhe - Leibniz Institute for Information Infrastructure.  All rights reserved.
data_257184-ICSD
_database_code_ICSD 257184
_audit_creation_date 2017-08-01
_chemical_name_systematic 'Sodium chromate(III/IV)'
_chemical_formula_structural 'Na0.5 Cr O2'
_chemical_formula_sum 'Cr1 Na0.5 O2'
_exptl_crystal_density_diffrn 3.89
_cell_measurement_temperature 300.
_publ_section_title

;
Thermal stability of NaxCrO2 for rechargeable sodium batteries; studies by
high-temperature synchrotron X-ray diffraction
;
loop_
_citation_id
_citation_journal_full
_citation_year
_citation_journal_volume
_citation_page_first
_citation_page_last
_citation_journal_id_ASTM
primary 'ACS Applied Materials & Interfaces' 2016 8 32292 32299 AAMICK
loop_
_publ_author_name
'Yabuuchi, Naoaki'
'Ikeuchi, Issei'
'Kubota, Kei'
'Komaba, Shinichi'
_cell_length_a 5.0021(2)
_cell_length_b 5.7630(2)
_cell_length_c 5.8682(1)
_cell_angle_alpha 90
_cell_angle_beta 105.587(3)
_cell_angle_gamma 90
_cell_volume 162.94
_cell_formula_units_Z 4
_symmetry_space_group_name_H-M 'P 1 21/m 1'
_symmetry_Int_Tables_number 11
_refine_ls_R_factor_all 0.0598
loop_
_symmetry_equiv_pos_site_id
_symmetry_equiv_pos_as_xyz
1 'x, -y+1/2, z'
2 '-x, -y, -z'
3 '-x, y+1/2, -z'
4 'x, y, z'
loop_
_atom_type_symbol
_atom_type_oxidation_number
Na1+ 1
Cr3+ 3.5
O2- -2
loop_
_atom_site_label
_atom_site_type_symbol
_atom_site_symmetry_multiplicity
_atom_site_Wyckoff_symbol
_atom_site_fract_x
_atom_site_fract_y
_atom_site_fract_z
_atom_site_B_iso_or_equiv
_atom_site_occupancy
_atom_site_attached_hydrogens
Na1 Na1+ 2 e 0.300(1) 0.25 0.9982(9) 2. 0.663(2) 0
Na2 Na1+ 4 f 0.800(1) 0 0.9982(9) 2. 0.14(1) 0
Na3 Na1+ 2 e 0.700(1) 0.25 0.0018(9) 2. 0.057(12) 0
Cr1 Cr3+ 2 c 0 0 0.5 0.3 1 0
Cr2 Cr3+ 2 e 0.5 0.25 0.4916(8) 0.3 1 0
O1 O2- 2 e 0.118(3) 0.25 0.366(2) 0.5 1. 0
O2 O2- 2 e 0.891(3) 0.25 0.679(3) 00.5 1. 0
O3 O2- 4 f 0.393(2) 0.996(2) 0.697(1) 0.5 1. 0
#End of TTdata_257184-ICSD