
#(C) 2019 by FIZ Karlsruhe - Leibniz Institute for Information Infrastructure.  All rights reserved.
data_257561-ICSD
_database_code_ICSD 257561
_audit_creation_date 2018-02-01
_chemical_name_systematic 'Sodium magnesium phosphate fluoride'
_chemical_formula_structural 'Na2 Mg (P O4) F'
_chemical_formula_sum 'F1 Mg1 Na2 O4 P1'
_chemical_name_structure_type Na2MgPO4F
_chemical_name_mineral Moraskoite
_exptl_crystal_density_diffrn 2.94
_publ_section_title

;
Moraskoite, Na2Mg(PO4)F, a new mineral from the Morasko IAB-MG iron meteorite
(Poland)
;
loop_
_citation_id
_citation_journal_full
_citation_year
_citation_journal_volume
_citation_page_first
_citation_page_last
_citation_journal_id_ASTM
primary 'Mineralogical Magazine' 2015 79 387 398 MNLMBB
loop_
_publ_author_name
'Karwowski, Lukasz'
'Kusz, Joachim'
'Muszynski, Andrzej'
'Kryza, Ryszard'
'Sitarz, Maciej'
'Galuskin, Evgeny V.'
_cell_length_a 5.2117(10)
_cell_length_b 13.711(3)
_cell_length_c 11.665(2)
_cell_angle_alpha 90.
_cell_angle_beta 90.
_cell_angle_gamma 90.
_cell_volume 833.55
_cell_formula_units_Z 8
_symmetry_space_group_name_H-M 'P b c n'
_symmetry_Int_Tables_number 60
_refine_ls_R_factor_all 0.018
loop_
_symmetry_equiv_pos_site_id
_symmetry_equiv_pos_as_xyz
1 'x, -y, z+1/2'
2 '-x+1/2, y+1/2, z'
3 'x+1/2, y+1/2, -z+1/2'
4 '-x, -y, -z'
5 '-x, y, -z+1/2'
6 'x+1/2, -y+1/2, -z'
7 '-x+1/2, -y+1/2, z+1/2'
8 'x, y, z'
loop_
_atom_type_symbol
_atom_type_oxidation_number
Mg2+ 2
Na1+ 1
P5+ 5
O2- -2
F1- -1
loop_
_atom_site_label
_atom_site_type_symbol
_atom_site_symmetry_multiplicity
_atom_site_Wyckoff_symbol
_atom_site_fract_x
_atom_site_fract_y
_atom_site_fract_z
_atom_site_B_iso_or_equiv
_atom_site_occupancy
_atom_site_attached_hydrogens
Mg1 Mg2+ 8 d 0.72166(9) 0.51316(3) 0.82374(4) 0.01283(15) 1. 0
Na1 Na1+ 8 d 0.75883(11) 0.74602(4) 0.82883(5) 0.02093(18) 1. 0
Na2 Na1+ 8 d 0.74437(12) 0.62299(4) 0.58078(5) 0.01911(18) 1. 0
P1 P5+ 8 d 0.70717(17) 0.88242(2) 0.58746(3) 0.01177(14) 1. 0
O1 O2- 8 d 0.78713(18) 0.78231(7) 0.63054(8) 0.0187(2) 1. 0
O2 O2- 8 d 0.85465(17) 0.96302(6) 0.65225(7) 0.0155(2) 1. 0
O3 O2- 8 d 0.76344(18) 0.89155(7) 0.45864(8) 0.0179(2) 1. 0
O4 O2- 8 d 0.41609(17) 0.89889(7) 0.60762(7) 0.0164(2) 1. 0
F1 F1- 4 c 0.5 0.62249(7) 0.75 0.0142(2) 1. 0
F2 F1- 4 c 0 0.58859(7) 0.75 0.0165(2) 1. 0
loop_
_atom_site_aniso_label
_atom_site_aniso_type_symbol
_atom_site_aniso_U_11
_atom_site_aniso_U_22
_atom_site_aniso_U_33
_atom_site_aniso_U_12
_atom_site_aniso_U_13
_atom_site_aniso_U_23
Mg1 Mg2+ 0.0110(2) 0.0139(2) 0.0136(2) -0.00034(15) -0.00023(14) 0.00015(14)
Na1 Na1+ 0.0230(3) 0.0190(3) 0.0208(3) -0.0012(2) -0.0015(2) 0.00069(19)
Na2 Na1+ 0.0210(3) 0.0176(3) 0.0188(3) -0.0009(2) 0.00305(19) 0.00017(18)
P1 P5+ 0.0110(2) 0.0120(2) 0.0124(2) -00.00026(10) 0.00001(10) -0.00026(10)
O1 O2- 0.0212(5) 0.0143(4) 0.02085 0.0017(3) -0.0009(3) 0.0016(4)
O2 O2- 0.0131(4) 0.0164(4) 0.0170(4) -0.0020(3) -0.0005(3) -0.0025(3)
O3 O2- 0.0201(5) 0.0191(5) 0.0143(5) -0.01(3) 0.0015(4) 0.0004(3)
O4 O2- 0.0116(5) 0.0180(4) 0.0196(4) 00.0001(3) 0.0007(3) -0.0025(3)
F1 F1- 0.0124(5) 0.0151(5) 0.0152(5) 0 -0.0006(4) 0
F2 F1- 0.0133(5) 0.0180(5) 0.0182(5) 0 0.0012(4) 0
#End of TTdata_257561-ICSD