
#(C) 2019 by FIZ Karlsruhe - Leibniz Institute for Information Infrastructure.  All rights reserved.
data_258295-ICSD
_database_code_ICSD 258295
_audit_creation_date 2018-02-01
_chemical_name_systematic 'Sodium manganese(II) iron(II/III) phosphate'
_chemical_formula_structural 'Na1.86 Mn0.94 Fe2.06 (P O4)3'
_chemical_formula_sum 'Fe2.06 Mn0.94 Na1.86 O12 P3'
_chemical_name_structure_type Alluaudite
_exptl_crystal_density_diffrn 3.75
_publ_section_title

;
One-step hydrothermal synthesis and electrochemical performance of
sodium-manganese-iron phosphate as cathode material for Li-ion batteries
;
loop_
_citation_id
_citation_journal_full
_citation_year
_citation_journal_volume
_citation_page_first
_citation_page_last
_citation_journal_id_ASTM
primary 'Journal of Solid State Chemistry' 2017 253 389 397 JSSCBI
loop_
_publ_author_name
'Karegeya, Claude'
'Mahmoud, Abdelfattah'
'Vertruyen, Benedicte'
'Hatert, Frederic'
'Hermann, Raphael P.'
'Cloots, Rudi'
'Boschini, Frederic'
_cell_length_a 11.933(1)
_cell_length_b 12.533(1)
_cell_length_c 6.454(1)
_cell_angle_alpha 90
_cell_angle_beta 114.87(1)
_cell_angle_gamma 90
_cell_volume 875.72
_cell_formula_units_Z 4
_symmetry_space_group_name_H-M 'C 1 2/c 1'
_symmetry_Int_Tables_number 15
_refine_ls_R_factor_all 0.027
loop_
_symmetry_equiv_pos_site_id
_symmetry_equiv_pos_as_xyz
1 'x, -y, z+1/2'
2 '-x, -y, -z'
3 '-x, y, -z+1/2'
4 'x, y, z'
5 'x+1/2, -y+1/2, z+1/2'
6 '-x+1/2, -y+1/2, -z'
7 '-x+1/2, y+1/2, -z+1/2'
8 'x+1/2, y+1/2, z'
loop_
_atom_type_symbol
_atom_type_oxidation_number
Na1+ 1
Fe2+ 2
Mn2+ 2
Fe2+ 2
Fe3+ 3
Mn2+ 2
P5+ 5
O2- -2
loop_
_atom_site_label
_atom_site_type_symbol
_atom_site_symmetry_multiplicity
_atom_site_Wyckoff_symbol
_atom_site_fract_x
_atom_site_fract_y
_atom_site_fract_z
_atom_site_B_iso_or_equiv
_atom_site_occupancy
_atom_site_attached_hydrogens
Na1 Na1+ 4 e 0 -0.020(1) 0.25 1. 0.89 0
Na2 Na1+ 4 b 0.5 0 0 1.4(7) 0.97 0
Fe1 Fe2+ 4 e 0 0.2680(9) 0.25 1.7(5) 0.103 0
Mn1 Mn2+ 4 e 0 0.2680(9) 0.25 1.7(5) 0.897 0
Fe2 Fe2+ 8 f 0.2797(7) 0.6556(5) 0.360(1) 7(1) 0.3715 0
Fe3 Fe3+ 8 f 0.2797(7) 0.6556(5) 0.360(1) 7(1) 0.609 0
Mn2 Mn2+ 8 f 0.2797(7) 0.6556(5) 0.360(1) 7(1) 0.0195 0
P1 P5+ 4 e 0 -0.282(1) 0.25 6.6(3) 1. 0
P2 P5+ 8 f 0.220(1) -0.1056(9) 0.103(2) 6.6(3) 1. 0
O1 O2- 8 f 0.455(1) 0.722(1) 0.533(3) 2.1(2) 1. 0
O2 O2- 8 f 0.123(2) 0.632(1) 0.283(2) 2.1(2) 1. 0
O3 O2- 8 f 0.344(2) 0.661(1) 0.103(3) 2.1(2) 1. 0
O4 O2- 8 f 0.125(2) 0.400(1) 0.304(2) 2.1(2) 1. 0
O5 O2- 8 f 0.212(2) 0.838(1) 0.305(3) 2.1(2) 1. 0
O6 O2- 8 f 0.346(1) 0.503(2) 0.389(2) 2.1(2) 1. 0
#End of TTdata_258295-ICSD