
#(C) 2019 by FIZ Karlsruhe - Leibniz Institute for Information Infrastructure.  All rights reserved.
data_258288-ICSD
_database_code_ICSD 258288
_audit_creation_date 2018-02-01
_chemical_name_systematic 'Sodium manganese(II) iron(II/III) phosphate'
_chemical_formula_structural 'Na1.79 Mn1.63 Fe1.50 (P O4)3'
_chemical_formula_sum 'Fe1.5 Mn1.63 Na1.79 O12 P3'
_chemical_name_structure_type Alluaudite
_exptl_crystal_density_diffrn 3.76
_publ_section_title

;
One-step hydrothermal synthesis and electrochemical performance of
sodium-manganese-iron phosphate as cathode material for Li-ion batteries
;
loop_
_citation_id
_citation_journal_full
_citation_year
_citation_journal_volume
_citation_page_first
_citation_page_last
_citation_journal_id_ASTM
primary 'Journal of Solid State Chemistry' 2017 253 389 397 JSSCBI
loop_
_publ_author_name
'Karegeya, Claude'
'Mahmoud, Abdelfattah'
'Vertruyen, Benedicte'
'Hatert, Frederic'
'Hermann, Raphael P.'
'Cloots, Rudi'
'Boschini, Frederic'
_cell_length_a 11.953(1)
_cell_length_b 12.563(1)
_cell_length_c 6.473(1)
_cell_angle_alpha 90
_cell_angle_beta 114.93(1)
_cell_angle_gamma 90
_cell_volume 881.45
_cell_formula_units_Z 4
_symmetry_space_group_name_H-M 'C 1 2/c 1'
_symmetry_Int_Tables_number 15
_refine_ls_R_factor_all 0.0223
loop_
_symmetry_equiv_pos_site_id
_symmetry_equiv_pos_as_xyz
1 'x, -y, z+1/2'
2 '-x, -y, -z'
3 '-x, y, -z+1/2'
4 'x, y, z'
5 'x+1/2, -y+1/2, z+1/2'
6 '-x+1/2, -y+1/2, -z'
7 '-x+1/2, y+1/2, -z+1/2'
8 'x+1/2, y+1/2, z'
loop_
_atom_type_symbol
_atom_type_oxidation_number
Na1+ 1
Mn2+ 2
Fe2+ 2.667
Mn2+ 2
P5+ 5
O2- -2
loop_
_atom_site_label
_atom_site_type_symbol
_atom_site_symmetry_multiplicity
_atom_site_Wyckoff_symbol
_atom_site_fract_x
_atom_site_fract_y
_atom_site_fract_z
_atom_site_B_iso_or_equiv
_atom_site_occupancy
_atom_site_attached_hydrogens
Na1 Na1+ 4 e 0 -0.0185(8) 0.25 1. 0.934(9) 0
Na2 Na1+ 4 b 0.5 0 0 1.5(4) 0.86(2) 0
Mn1 Mn2+ 4 b 0.5 0 0 1.5(4) 0.14(2) 0
Mn2 Mn2+ 4 e 0 0.2689(5) 0.25 1.3(3) 0.99(1) 0
Fe1 Fe2+ 8 f 0.2816(5) 0.6585(3) 0.3586(8) 3.3(1) 0.75 0
Mn3 Mn2+ 8 f 0.2816(5) 0.6585(3) 0.3586(8) 3.3(1) 0.25 0
P1 P5+ 4 e 0 -0.2807(9) 0.25 5.3(2) 1. 0
P2 P5+ 8 f 0.2202(8) -0.1036(6) 0.125(2) 5.3(2) 1. 0
O1 O2- 8 f 0.465(1) 0.7062(8) 0.545(2) 2.3(2) 1. 0
O2 O2- 8 f 0.115(1) 0.6297(8) 0.271(2) 2.3(2) 1. 0
O3 O2- 8 f 0.341(1) 0.6608(8) 0.107(2) 2.3(2) 1. 0
O4 O2- 8 f 0.134(1) 0.4056(9) 0.322(2) 2.3(2) 1. 0
O5 O2- 8 f 0.2159(9) 0.8361(8) 0.320(2) 2.3(2) 1. 0
O6 O2- 8 f 0.3396(7) 0.503(1) 0.392(1) 2.3(2) 1. 0
#End of TTdata_258288-ICSD