
#(C) 2019 by FIZ Karlsruhe - Leibniz Institute for Information Infrastructure.  All rights reserved.
data_258293-ICSD
_database_code_ICSD 258293
_audit_creation_date 2018-02-01
_chemical_name_systematic 'Sodium manganese(II) iron(II/III) phosphate'
_chemical_formula_structural 'Na1.87 Mn1.11 Fe2.00 (P O4)3'
_chemical_formula_sum 'Fe2 Mn1.11 Na1.87 O12 P3'
_chemical_name_structure_type Alluaudite
_exptl_crystal_density_diffrn 3.81
_publ_section_title

;
One-step hydrothermal synthesis and electrochemical performance of
sodium-manganese-iron phosphate as cathode material for Li-ion batteries
;
loop_
_citation_id
_citation_journal_full
_citation_year
_citation_journal_volume
_citation_page_first
_citation_page_last
_citation_journal_id_ASTM
primary 'Journal of Solid State Chemistry' 2017 253 389 397 JSSCBI
loop_
_publ_author_name
'Karegeya, Claude'
'Mahmoud, Abdelfattah'
'Vertruyen, Benedicte'
'Hatert, Frederic'
'Hermann, Raphael P.'
'Cloots, Rudi'
'Boschini, Frederic'
_cell_length_a 11.915(1)
_cell_length_b 12.522(1)
_cell_length_c 6.453(1)
_cell_angle_alpha 90
_cell_angle_beta 114.91(1)
_cell_angle_gamma 90
_cell_volume 873.21
_cell_formula_units_Z 4
_symmetry_space_group_name_H-M 'C 1 2/c 1'
_symmetry_Int_Tables_number 15
_refine_ls_R_factor_all 0.0239
loop_
_symmetry_equiv_pos_site_id
_symmetry_equiv_pos_as_xyz
1 'x, -y, z+1/2'
2 '-x, -y, -z'
3 '-x, y, -z+1/2'
4 'x, y, z'
5 'x+1/2, -y+1/2, z+1/2'
6 '-x+1/2, -y+1/2, -z'
7 '-x+1/2, y+1/2, -z+1/2'
8 'x+1/2, y+1/2, z'
loop_
_atom_type_symbol
_atom_type_oxidation_number
Na1+ 1
Mn2+ 2
Fe2+ 2
Mn2+ 2
Fe2+ 2
Fe3+ 3
Mn2+ 2
P5+ 5
O2- -2
loop_
_atom_site_label
_atom_site_type_symbol
_atom_site_symmetry_multiplicity
_atom_site_Wyckoff_symbol
_atom_site_fract_x
_atom_site_fract_y
_atom_site_fract_z
_atom_site_B_iso_or_equiv
_atom_site_occupancy
_atom_site_attached_hydrogens
Na1 Na1+ 4 e 0 -0.013(1) 0.25 1. 0.98 0
Na2 Na1+ 4 b 0.5 0 0 1. 0.89 0
Mn1 Mn2+ 4 b 0.5 0 0 1. 0.11 0
Fe1 Fe2+ 4 e 0 0.2688(7) 0.25 1. 0.12 0
Mn2 Mn2+ 4 e 0 0.2688(7) 0.25 1. 0.88 0
Fe2 Fe2+ 8 f 0.2824(6) 0.6564(3) 0.361(1) 2.8(4) 0.3595 0
Fe3 Fe3+ 8 f 0.2824(6) 0.6564(3) 0.361(1) 2.8(4) 0.579 0
Mn3 Mn2+ 8 f 0.2824(6) 0.6564(3) 0.361(1) 2.8(4) 0.062 0
P1 P5+ 4 e 0 -0.282(1) 0.25 2.6(2) 1. 0
P2 P5+ 8 f 0.222(1) -0.1064(6) 0.117(2) 2.6(2) 1. 0
O1 O2- 8 f 0.456(1) 0.711(1) 0.530(2) 2.3(2) 1. 0
O2 O2- 8 f 0.112(1) 0.6361(8) 0.261(2) 2.3(2) 1. 0
O3 O2- 8 f 0.343(1) 0.6590(9) 0.113(2) 2.3(2) 1. 0
O4 O2- 8 f 0.138(1) 0.407(1) 0.329(2) 2.3(2) 1. 0
O5 O2- 8 f 0.217(1) 0.8351(9) 0.313(3) 2.3(2) 1. 0
O6 O2- 8 f 0.3399(8) 0.508(1) 0.395(1) 2.3(2) 1. 0
#End of TTdata_258293-ICSD