
#(C) 2019 by FIZ Karlsruhe - Leibniz Institute for Information Infrastructure.  All rights reserved.
data_258387-ICSD
_database_code_ICSD 258387
_audit_creation_date 2018-02-01
_chemical_name_systematic 'Sodium strontium vanadate(V) -high temperature phase'
_chemical_formula_structural 'Na Sr V O4'
_chemical_formula_sum 'Na1 O4 Sr1 V1'
_chemical_name_structure_type Na2MnO4
_exptl_crystal_density_diffrn 3.37
_cell_measurement_temperature 1118.
_publ_section_title

;
Crystal structure and polymorphism of NaSrVO4: the first AIBIIXVO4
larnite-related structure from X-ray powder diffraction data
;
loop_
_citation_id
_citation_journal_full
_citation_year
_citation_journal_volume
_citation_page_first
_citation_page_last
_citation_journal_id_ASTM
primary 'Physics and Chemistry of Minerals' 2017 44 455 463 PCMIDU
loop_
_publ_author_name
'Nenert, Gwilherm'
'O'Meara, Paul'
'Degen, Thomas'
_cell_length_a 5.772032(14)
_cell_length_b 5.772032(14)
_cell_length_c 7.68837(3)
_cell_angle_alpha 90.
_cell_angle_beta 90.
_cell_angle_gamma 120.
_cell_volume 221.83
_cell_formula_units_Z 2
_symmetry_space_group_name_H-M 'P 63 m c'
_symmetry_Int_Tables_number 186
loop_
_symmetry_equiv_pos_site_id
_symmetry_equiv_pos_as_xyz
1 '-x, -x+y, z+1/2'
2 'x-y, -y, z+1/2'
3 'y, x, z+1/2'
4 'x-y, x, z+1/2'
5 'y, -x+y, z+1/2'
6 '-x, -y, z+1/2'
7 'x, x-y, z'
8 '-x+y, y, z'
9 '-y, -x, z'
10 '-x+y, -x, z'
11 '-y, x-y, z'
12 'x, y, z'
loop_
_atom_type_symbol
_atom_type_oxidation_number
Na1+ 1
Sr2+ 2
Na1+ 1
V5+ 5
O2- -2
loop_
_atom_site_label
_atom_site_type_symbol
_atom_site_symmetry_multiplicity
_atom_site_Wyckoff_symbol
_atom_site_fract_x
_atom_site_fract_y
_atom_site_fract_z
_atom_site_B_iso_or_equiv
_atom_site_occupancy
_atom_site_attached_hydrogens
Na1 Na1+ 2 b 0.3333 0.6667 0.7848(5) 0.0608(6) 0.764(2) 0
Sr1 Sr2+ 2 b 0.3333 0.6667 0.7848(5) 0.0608(6) 0.236(2) 0
Sr2 Sr2+ 2 a 0 0 0.0527(8) 0.0608(6) 0.764(2) 0
Na2 Na1+ 2 a 0 0 0.0527(8) 0.0608(6) 0.236(2) 0
V1 V5+ 2 b 0.3333 0.6667 0.34519 0.0608(6) 1. 0
O1 O2- 6 c 0.1664(4) -0.1664(4) 0.2768(15) 0.279(5) 1. 0
O2 O2- 2 b 0.3333 0.6667 0.572805(13) 0.279(5) 1. 0
#End of TTdata_258387-ICSD