
#(C) 2019 by FIZ Karlsruhe - Leibniz Institute for Information Infrastructure.  All rights reserved.
data_258573-ICSD
_database_code_ICSD 258573
_audit_creation_date 2018-02-01
_chemical_name_systematic 'Barium sodium niobate manganate(V)'
_chemical_formula_structural 'Ba6 Na2 Nb2 Mn2 O17'
_chemical_formula_sum 'Ba6 Mn2 Na2 Nb2 O17'
_exptl_crystal_density_diffrn 5.45
_publ_section_title

;
New oxygen-deficient cationic-ordered perovskites containing
turquoise-coloring Mn5+O4 tetrahedral layers
;
loop_
_citation_id
_citation_journal_full
_citation_year
_citation_journal_volume
_citation_page_first
_citation_page_last
_citation_journal_id_ASTM
primary 'Journal of Solid State Chemistry' 2017 247 20 23 JSSCBI
loop_
_publ_author_name
'Han, Yifeng'
'Ye, Xuanhong'
'Zhu, Hong'
'Li, Yuexiang'
'Kuang, Xiaojun'
_cell_length_a 5.85394(3)
_cell_length_b 5.85394(3)
_cell_length_c 14.7578(1)
_cell_angle_alpha 90.
_cell_angle_beta 90.
_cell_angle_gamma 120.
_cell_volume 437.97
_cell_formula_units_Z 1
_symmetry_space_group_name_H-M 'P -3 m 1'
_symmetry_Int_Tables_number 164
_refine_ls_R_factor_all 0.0257
loop_
_symmetry_equiv_pos_site_id
_symmetry_equiv_pos_as_xyz
1 'x-y, -y, -z'
2 '-x, -x+y, -z'
3 'y, x, -z'
4 'x-y, x, -z'
5 'y, -x+y, -z'
6 '-x, -y, -z'
7 '-x+y, y, z'
8 'x, x-y, z'
9 '-y, -x, z'
10 '-x+y, -x, z'
11 '-y, x-y, z'
12 'x, y, z'
loop_
_atom_type_symbol
_atom_type_oxidation_number
Ba2+ 2
Na1+ 1
Nb5+ 5
Mn5+ 5
O2- -2
loop_
_atom_site_label
_atom_site_type_symbol
_atom_site_symmetry_multiplicity
_atom_site_Wyckoff_symbol
_atom_site_fract_x
_atom_site_fract_y
_atom_site_fract_z
_atom_site_B_iso_or_equiv
_atom_site_occupancy
_atom_site_attached_hydrogens
Ba1 Ba2+ 1 a 0 0 0 2.4(5) 1. 0
Ba2 Ba2+ 2 d 0.6667 0.3333 0.1848(1) 1.91(3) 1. 0
Ba3 Ba2+ 2 d 0.3333 0.6667 0.3453(1) 1.88(3) 1. 0
Ba4 Ba2+ 1 b 0 0 0.5 1.82(5) 1. 0
Na1 Na1+ 2 c 0 0 0.251(1) 1.9(2) 1. 0
Nb1 Nb5+ 2 d 0.6667 0.3333 0.4148(2) 1.40(3) 1. 0
Mn1 Mn5+ 2 d 0.3333 0.6667 0.1064(2) 0.93(7) 1. 0
O1 O2- 2 d 0.3333 0.6667 -0.0139(8) 1.0(3) 1. 0
O2 O2- 6 i 0.1813(8) 0.8186(2) 0.1423(3) 2.4(2) 1. 0
O3 O2- 6 i 0.8169(8) 0.1831(8) 0.3396(6) 2.1(2) 1. 0
O4 O2- 3 f 0.5 0.5 0.5 1.7(3) 1. 0
#End of TTdata_258573-ICSD