
#(C) 2019 by FIZ Karlsruhe - Leibniz Institute for Information Infrastructure.  All rights reserved.
data_258798-ICSD
_database_code_ICSD 258798
_audit_creation_date 2018-02-01
_chemical_name_systematic 'Lithium sodium iron(III) germanate'
_chemical_formula_structural 'Li0.31 Na0.69 Fe Ge2 O6'
_chemical_formula_sum 'Fe1 Ge2 Li0.31 Na0.69 O6'
_chemical_name_structure_type Pyroxene-MgSiO3-LT
_exptl_crystal_density_diffrn 4.53
_cell_measurement_temperature 20.
_publ_section_title

;
A neutron diffraction study of crystal and low-temperature magnetic structures
within the (Na,Li)FeGe2O6 pyroxene-type solid solution series
;
loop_
_citation_id
_citation_journal_full
_citation_year
_citation_journal_volume
_citation_page_first
_citation_page_last
_citation_journal_id_ASTM
primary 'Physics and Chemistry of Minerals' 2017 44 669 684 PCMIDU
loop_
_publ_author_name
'Redhammer, Guenther J.'
'Senyshyn, Anatoliy'
'Lebernegg, Stefan'
'Tippelt, Gerold'
'Dachs, Edgar'
'Roth, Georg'
_cell_length_a 9.9837(3)
_cell_length_b 8.8654(3)
_cell_length_c 5.5016(2)
_cell_angle_alpha 90
_cell_angle_beta 108.281(5)
_cell_angle_gamma 90
_cell_volume 462.37
_cell_formula_units_Z 4
_symmetry_space_group_name_H-M 'P 1 21/c 1'
_symmetry_Int_Tables_number 14
_refine_ls_R_factor_all 0.0305
loop_
_symmetry_equiv_pos_site_id
_symmetry_equiv_pos_as_xyz
1 'x, -y+1/2, z+1/2'
2 '-x, -y, -z'
3 '-x, y+1/2, -z+1/2'
4 'x, y, z'
loop_
_atom_type_symbol
_atom_type_oxidation_number
Na1+ 1
Li1+ 1
Fe3+ 3
Ge4+ 4
O2- -2
loop_
_atom_site_label
_atom_site_type_symbol
_atom_site_symmetry_multiplicity
_atom_site_Wyckoff_symbol
_atom_site_fract_x
_atom_site_fract_y
_atom_site_fract_z
_atom_site_B_iso_or_equiv
_atom_site_occupancy
_atom_site_attached_hydrogens
Na1 Na1+ 4 e 0.2596(14) 0.4438(6) 0.729(2) 1.3(3) 0.69(1) 0
Li1 Li1+ 4 e 0.5896(14) 0.4438(6) 0.729(2) 1.3(3) 0.31(1) 0
Fe1 Fe3+ 4 e 0.2516(5) 0.65360(14) 0.2426(6) 1.04(4) 1. 0
Ge1 Ge4+ 4 e 0.03993(3) 0.3442(3) 0.2445(5) 1.14(7) 1. 0
Ge2 Ge4+ 4 e 0.5404(3) 0.8430(3) 0.2306(4) 1.07(7) 1. 0
O1 O2- 4 e -0.1443(5) 0.3358(5) 0.1463(8) 1.14(9) 1. 0
O2 O2- 4 e 0.1076(5) 0.5229(4) 0.2882(7) 1.35(14) 1. 0
O3 O2- 4 e 0.1120(4) 0.2614(3) 0.5478(6) 0.74(11) 1. 0
O4 O2- 4 e 0.3575(5) 0.8283(5) 0.1226(8) 1.42(9) 1. 0
O5 O2- 4 e 0.6085(5) 1.0198(5) 0.3175(7) 2.25(13) 1. 0
O6 O2- 4 e 0.6136(5) 0.7304(4) 0.5058(7) 2.54(14) 1. 0
#End of TTdata_258798-ICSD