
#(C) 2019 by FIZ Karlsruhe - Leibniz Institute for Information Infrastructure.  All rights reserved.
data_258797-ICSD
_database_code_ICSD 258797
_audit_creation_date 2018-02-01
_chemical_name_systematic 'Lithium sodium iron(III) germanate'
_chemical_formula_structural 'Li0.24 Na0.76 Fe Ge2 O6'
_chemical_formula_sum 'Fe1 Ge2 Li0.24 Na0.76 O6'
_chemical_name_structure_type Pyroxene-MgSiO3-LT
_exptl_crystal_density_diffrn 4.53
_cell_measurement_temperature 20.
_publ_section_title

;
A neutron diffraction study of crystal and low-temperature magnetic structures
within the (Na,Li)FeGe2O6 pyroxene-type solid solution series
;
loop_
_citation_id
_citation_journal_full
_citation_year
_citation_journal_volume
_citation_page_first
_citation_page_last
_citation_journal_id_ASTM
primary 'Physics and Chemistry of Minerals' 2017 44 669 684 PCMIDU
loop_
_publ_author_name
'Redhammer, Guenther J.'
'Senyshyn, Anatoliy'
'Lebernegg, Stefan'
'Tippelt, Gerold'
'Dachs, Edgar'
'Roth, Georg'
_cell_length_a 9.9874(3)
_cell_length_b 8.8675(2)
_cell_length_c 5.5059
_cell_angle_alpha 90
_cell_angle_beta 108.250(5)
_cell_angle_gamma 90
_cell_volume 463.09
_cell_formula_units_Z 4
_symmetry_space_group_name_H-M 'P 1 21/c 1'
_symmetry_Int_Tables_number 14
_refine_ls_R_factor_all 0.0286
loop_
_symmetry_equiv_pos_site_id
_symmetry_equiv_pos_as_xyz
1 'x, -y+1/2, z+1/2'
2 '-x, -y, -z'
3 '-x, y+1/2, -z+1/2'
4 'x, y, z'
loop_
_atom_type_symbol
_atom_type_oxidation_number
Na1+ 1
Li1+ 1
Fe3+ 3
Ge4+ 4
O2- -2
loop_
_atom_site_label
_atom_site_type_symbol
_atom_site_symmetry_multiplicity
_atom_site_Wyckoff_symbol
_atom_site_fract_x
_atom_site_fract_y
_atom_site_fract_z
_atom_site_B_iso_or_equiv
_atom_site_occupancy
_atom_site_attached_hydrogens
Na1 Na1+ 4 e 0.2550(17) 0.4467(6) 0.731(2) 1.3(2) 0.754(6) 0
Li1 Li1+ 4 e 0.25502(17) 0.4467(6) 0.732(2) 1.3(2) 0.246(6) 0
Fe1 Fe3+ 4 e 0.2504(5) 0.65389(13) 0.24167 0.45(4) 1. 0
Ge1 Ge4+ 4 e 0.0385(4) 0.3442(3) 0.2421(5) 0.35(7) 1. 0
Ge2 Ge4+ 4 e 0.5409(4) 0.8432(3) 0.2309(5) 0.34(7) 1. 0
O1 O2- 4 e -0.1458(5) 0.3331(5) 0.1434(9) 0.55(9) 1. 0
O2 O2- 4 e 0.1082(5) 0.5233(5) 0.28990(7) 0.74(7) 1. 0
O3 O2- 4 e 0.1125(4) 0.2606(3) 0.5469(6) 0.64(7) 1. 0
O4 O2- 4 e 0.3578(6) 0.8302(5) 0.1243(9) 0.95(9) 1. 0
O5 O2- 4 e 0.6096(5) 1.0212(5) 0.3153(7) 0.98(7) 1. 0
O6 O2- 4 e 0.6130(5) 0.7345(4) 0.5084(7) 1.26(7) 1. 0
#End of TTdata_258797-ICSD