
#(C) 2019 by FIZ Karlsruhe - Leibniz Institute for Information Infrastructure.  All rights reserved.
data_258794-ICSD
_database_code_ICSD 258794
_audit_creation_date 2018-02-01
_chemical_name_systematic 'Lithium sodium iron(III) germanate'
_chemical_formula_structural 'Li0.12 Na0.88 Fe Ge2 O6'
_chemical_formula_sum 'Fe1 Ge2 Li0.12 Na0.88 O6'
_chemical_name_structure_type Pyroxene-CaMg(SiO3)2
_exptl_crystal_density_diffrn 4.59
_cell_measurement_temperature 20.
_publ_section_title

;
A neutron diffraction study of crystal and low-temperature magnetic structures
within the (Na,Li)FeGe2O6 pyroxene-type solid solution series
;
loop_
_citation_id
_citation_journal_full
_citation_year
_citation_journal_volume
_citation_page_first
_citation_page_last
_citation_journal_id_ASTM
primary 'Physics and Chemistry of Minerals' 2017 44 669 684 PCMIDU
loop_
_publ_author_name
'Redhammer, Guenther J.'
'Senyshyn, Anatoliy'
'Lebernegg, Stefan'
'Tippelt, Gerold'
'Dachs, Edgar'
'Roth, Georg'
_cell_length_a 9.9968(3)
_cell_length_b 8.8827(3)
_cell_length_c 5.5142(2)
_cell_angle_alpha 90
_cell_angle_beta 109.938(5)
_cell_angle_gamma 90
_cell_volume 460.3
_cell_formula_units_Z 4
_symmetry_space_group_name_H-M 'C 1 2/c 1'
_symmetry_Int_Tables_number 15
_refine_ls_R_factor_all 0.0283
loop_
_symmetry_equiv_pos_site_id
_symmetry_equiv_pos_as_xyz
1 'x, -y, z+1/2'
2 '-x, -y, -z'
3 '-x, y, -z+1/2'
4 'x, y, z'
5 'x+1/2, -y+1/2, z+1/2'
6 '-x+1/2, -y+1/2, -z'
7 '-x+1/2, y+1/2, -z+1/2'
8 'x+1/2, y+1/2, z'
loop_
_atom_type_symbol
_atom_type_oxidation_number
Na1+ 1
Li1+ 1
Fe3+ 3
Ge4+ 4
O2- -2
loop_
_atom_site_label
_atom_site_type_symbol
_atom_site_symmetry_multiplicity
_atom_site_Wyckoff_symbol
_atom_site_fract_x
_atom_site_fract_y
_atom_site_fract_z
_atom_site_B_iso_or_equiv
_atom_site_occupancy
_atom_site_attached_hydrogens
Na1 Na1+ 4 e 0 0.3001(5) 0.25 1.00(16) 0.878(6) 0
Li1 Li1+ 4 e 0 0.3001(5) 0.25 1.00(16) 0.122(6) 0
Fe1 Fe3+ 4 e 0 0.90387(12) 0.25 0.433(3) 1. 0
Ge1 Ge4+ 8 f 0.28865(8) 0.09370(10) 0.23153(15) 0.53(3) 1. 0
O1 O2- 8 f 0.10588(10) 0.08102(15) 0.1323(2) 0.69(3) 1. 0
O2 O2- 8 f 0.35633(13) 0.27250(13) 0.2976(2) 0.97(3) 1. 0
O3 O2- 8 f 0.36201(14) 0.00350(11) 1.0215(3) 0.67(3) 1. 0
#End of TTdata_258794-ICSD