
#(C) 2019 by FIZ Karlsruhe - Leibniz Institute for Information Infrastructure.  All rights reserved.
data_258726-ICSD
_database_code_ICSD 258726
_audit_creation_date 2018-02-01
_chemical_name_systematic 'Disodium zirconium hexasilicate hexahydroxide'
_chemical_formula_structural 'Na2 Zr Si6 O12 (O H)6'
_chemical_formula_sum 'H6 Na2 O18 Si6 Zr1'
_chemical_name_mineral Hydroterskite
_exptl_crystal_density_diffrn 2.58
_publ_section_title

;
Hydroterskite: A new mineral species from the Saint-Amable Sill, Quebec, and a
comparison with terskite and elpidite
;
loop_
_citation_id
_citation_journal_full
_citation_year
_citation_journal_volume
_citation_page_first
_citation_page_last
_citation_journal_id_ASTM
primary 'Canadian Mineralogist' 2015 53 821 832 CAMIA6
loop_
_publ_author_name
'Grice, Joel D.'
'Rowe, Ralph'
'Poirier, Glenn'
_cell_length_a 13.956(6)
_cell_length_b 14.894(7)
_cell_length_c 7.441(4)
_cell_angle_alpha 90.
_cell_angle_beta 90.
_cell_angle_gamma 90.
_cell_volume 1546.69
_cell_formula_units_Z 4
_symmetry_space_group_name_H-M 'P n c a'
_symmetry_Int_Tables_number 60
_refine_ls_R_factor_all 0.036
loop_
_symmetry_equiv_pos_site_id
_symmetry_equiv_pos_as_xyz
1 'x+1/2, y, -z'
2 'x, -y+1/2, z+1/2'
3 '-x+1/2, y+1/2, z+1/2'
4 '-x, -y, -z'
5 '-x+1/2, -y, z'
6 '-x, y+1/2, -z+1/2'
7 'x+1/2, -y+1/2, -z+1/2'
8 'x, y, z'
loop_
_atom_type_symbol
_atom_type_oxidation_number
Zr4+ 4
Si4+ 4
Na1+ 1
O2- -2
H1+ 1
loop_
_atom_site_label
_atom_site_type_symbol
_atom_site_symmetry_multiplicity
_atom_site_Wyckoff_symbol
_atom_site_fract_x
_atom_site_fract_y
_atom_site_fract_z
_atom_site_B_iso_or_equiv
_atom_site_occupancy
_atom_site_attached_hydrogens
Zr1 Zr4+ 4 a 0 0 0 0.0154(2) 1. 0
Si1 Si4+ 8 d 0.3357(1) 0.1289(1) 0.7649(2) 0.0234(4) 1. 0
Si2 Si4+ 8 d 0.1324(1) 0.1404(1) 0.2974(2) 0.0148(3) 1. 0
Si3 Si4+ 8 d 0.1152(1) 0.1558(1) 0.7188(2) 0.0139(3) 1. 0
Na1 Na1+ 4 b 0.5 0 0.5 0.0291(7) 1. 0
Na2 Na1+ 4 c 0.75 0 -0.0714(4) 0.028(1) 1. 0
O1 O2- 8 d 0.2476(3) 0.1291(3) 0.2682(6) 0.034(1) 1. 0
O2 O2- 8 d 0.2208(2) 0.1352(3) 0.7965(5) 0.0275(8) 1. 0
O3 O2- 8 d 0.6105(3) 0.1302(3) 0.4917(4) 0.0289(9) 1. 0
O4 O2- 8 d 0.0950(3) 0.2378(2) 0.2319(5) 0.0304(9) 1. 0
O5 O2- 8 d -0.1292(3) 0.2659(3) 0.7364(7) 0.046(1) 1. 0
O6 O2- 8 d 0.0353(2) 0.0990(2) 0.8181(5) 0.0264(8) 1. 0
O7 O2- 8 d 0.0803(2) 0.0606(2) 0.1975(4) 0.0254(8) 1. 0
O8 O2- 8 d 0.3806(2) 0.0701(3) 0.9234(4) 0.0277(9) 1. 0
O9 O2- 8 d 0.3626(2) 0.0833(2) 0.5737(5) 0.039(1) 1. 0
H1 H1+ 8 d 0.235(4) 0.143(4) 0.142(3) 0.05 1. 0
H2 H1+ 8 d -0.082(3) 0.232(4) 0.807(7) 0.05 1. 0
H3 H1+ 8 d 0.391(4) 0.141(2) 0.601(9) 0.05 1. 0
loop_
_atom_site_aniso_label
_atom_site_aniso_type_symbol
_atom_site_aniso_U_11
_atom_site_aniso_U_22
_atom_site_aniso_U_33
_atom_site_aniso_U_12
_atom_site_aniso_U_13
_atom_site_aniso_U_23
Zr1 Zr4+ 0.0163(4) 0.0173(4) 0.0125(4) -0.0010(3) 0.0011(2) -0.0027(3)
Si1 Si4+ 0.0220(8) 0.0257(8) 0.0224(8) 0.0043(6) 0.0013(6) 0.0044(6)
Si2 Si4+ 0.0203(7) 0.0128(7) 0.0113(7) -0.0016(5) -0.0006(5) -0.0003(5)
Si3 Si4+ 0.0164(7) 0.0137(7) 0.0116(6) 0.0003(5) -0.0017(5) -0.0006(5)
Na1 Na1+ 0.024(2) 0.024(2) 0.039(2) -0.005(1) 0.009(1) -0.010(1)
Na2 Na1+ 0.027(2) 0.030(2) 0.028(2) 0.001(1) 0 0
O1 O2- 0.028(2) 0.031(2) 0.041(2) 0.002(2) 0.008(2) -0.006(2)
O2 O2- 0.018(2) 0.036(2) 0.028(2) -0.001(2) -0.003(2) 0.006(2)
O3 O2- 0.045(2) 0.030(2) 0.011(2) 0.000(1) -0.002(2) 0.004(1)
O4 O2- 0.0371(2) 0.018(2) 0.036(2) -0.005(2) -0.011(2) 0.006(2)
O5 O2- 0.0296(2) 0.030(2) 0.078(3) 0.002(2) -0.010(2) 0.004(2)
O6 O2- 0.020(2) 0.030(2) 0.028(2) -0.005(2) 0.001(2) 0.008(2)
O7 O2- 0.038(2) 0.017(2) 0.021(2) -0.007(2) -0.010(2) -0.002(1)
O8 O2- 0.023(2) 0.036(2) 0.024(2) 0.008(2) -0.006(2) 0.003(2)
O9 O2- 0.041(2) 0.053(3) 0.023(2) 0.018(2) -0.002(2) -0.002(2)
#End of TTdata_258726-ICSD