
#(C) 2019 by FIZ Karlsruhe - Leibniz Institute for Information Infrastructure.  All rights reserved.
data_258796-ICSD
_database_code_ICSD 258796
_audit_creation_date 2018-02-01
_chemical_name_systematic 'Lithium sodium iron(III) germanate'
_chemical_formula_structural 'Li0.22 Na0.78 Fe Ge2 O6'
_chemical_formula_sum 'Fe1 Ge2 Li0.22 Na0.78 O6'
_chemical_name_structure_type Pyroxene-CaMg(SiO3)2
_exptl_crystal_density_diffrn 4.51
_cell_measurement_temperature 20.
_publ_section_title

;
A neutron diffraction study of crystal and low-temperature magnetic structures
within the (Na,Li)FeGe2O6 pyroxene-type solid solution series
;
loop_
_citation_id
_citation_journal_full
_citation_year
_citation_journal_volume
_citation_page_first
_citation_page_last
_citation_journal_id_ASTM
primary 'Physics and Chemistry of Minerals' 2017 44 669 684 PCMIDU
loop_
_publ_author_name
'Redhammer, Guenther J.'
'Senyshyn, Anatoliy'
'Lebernegg, Stefan'
'Tippelt, Gerold'
'Dachs, Edgar'
'Roth, Georg'
_cell_length_a 10.0018(3)
_cell_length_b 8.8935(3)
_cell_length_c 5.5203(2)
_cell_angle_alpha 90
_cell_angle_beta 108.271(4)
_cell_angle_gamma 90
_cell_volume 466.28
_cell_formula_units_Z 4
_symmetry_space_group_name_H-M 'C 1 2/c 1'
_symmetry_Int_Tables_number 15
_refine_ls_R_factor_all 0.0405
loop_
_symmetry_equiv_pos_site_id
_symmetry_equiv_pos_as_xyz
1 'x, -y, z+1/2'
2 '-x, -y, -z'
3 '-x, y, -z+1/2'
4 'x, y, z'
5 'x+1/2, -y+1/2, z+1/2'
6 '-x+1/2, -y+1/2, -z'
7 '-x+1/2, y+1/2, -z+1/2'
8 'x+1/2, y+1/2, z'
loop_
_atom_type_symbol
_atom_type_oxidation_number
Na1+ 1
Li1+ 1
Fe3+ 3
Ge4+ 4
O2- -2
loop_
_atom_site_label
_atom_site_type_symbol
_atom_site_symmetry_multiplicity
_atom_site_Wyckoff_symbol
_atom_site_fract_x
_atom_site_fract_y
_atom_site_fract_z
_atom_site_B_iso_or_equiv
_atom_site_occupancy
_atom_site_attached_hydrogens
Na1 Na1+ 4 e 0 0.3019(9) 0.25 1.10(18) 0.784(8) 0
Li1 Li1+ 4 e 0 0.3019(9) 0.25 1.10(18) 0.216(8) 0
Fe1 Fe3+ 4 e 0 0.9044(2) 0.25 0.45(5) 1. 0
Ge1 Ge4+ 8 f 0.28897(13) 0.09371(15) 0.2342(2) 0.52(4) 1. 0
O1 O2- 8 f 0.10576(17) 0.0818(2) 0.1334(3) 0.84(5) 1. 0
O2 O2- 8 f 0.3572(2) 0.2741(2) 0.2967(4) 1.04(5) 1. 0
O3 O2- 8 f 0.3622(2) 0.00045(19) 1.0303(5) 1.05(5) 1. 0
#End of TTdata_258796-ICSD