
#(C) 2019 by FIZ Karlsruhe - Leibniz Institute for Information Infrastructure.  All rights reserved.
data_258888-ICSD
_database_code_ICSD 258888
_audit_creation_date 2018-02-01
_chemical_name_systematic 'Trisodium vanadium(III) triphosphate nitride'
_chemical_formula_structural 'Na3 V (P O3)3 N'
_chemical_formula_sum 'N1 Na3 O9 P3 V1'
_chemical_name_structure_type Na3AlN(PO3)3
_exptl_crystal_density_diffrn 2.91
_publ_section_title
'New 4V-class and zero-strain cathode material for Na-Ion batteries'
loop_
_citation_id
_citation_journal_full
_citation_year
_citation_journal_volume
_citation_page_first
_citation_page_last
_citation_journal_id_ASTM
primary 'Chemistry of Materials' 2017 29 7826 7832 CMATEX
loop_
_publ_author_name
'Kim, Jongsoon'
'Yoon, Gabin'
'Lee, Myeong Hwan'
'Kim, Hyungsub'
'Lee, Seongsu'
'Kang, Kisuk'
_cell_length_a 9.44905(7)
_cell_length_b 9.44905(7)
_cell_length_c 9.44905(7)
_cell_angle_alpha 90.
_cell_angle_beta 90.
_cell_angle_gamma 90.
_cell_volume 843.64
_cell_formula_units_Z 4
_symmetry_space_group_name_H-M 'P 21 3'
_symmetry_Int_Tables_number 198
_refine_ls_R_factor_all 0.0535
loop_
_symmetry_equiv_pos_site_id
_symmetry_equiv_pos_as_xyz
1 '-z+1/2, -x, y+1/2'
2 '-y+1/2, -z, x+1/2'
3 '-x+1/2, -y, z+1/2'
4 '-z, x+1/2, -y+1/2'
5 '-y, z+1/2, -x+1/2'
6 '-x, y+1/2, -z+1/2'
7 'z+1/2, -x+1/2, -y'
8 'y+1/2, -z+1/2, -x'
9 'x+1/2, -y+1/2, -z'
10 'z, x, y'
11 'y, z, x'
12 'x, y, z'
loop_
_atom_type_symbol
_atom_type_oxidation_number
P5+ 5
V3+ 3
Na1+ 1
O2- -2
N3- -3
loop_
_atom_site_label
_atom_site_type_symbol
_atom_site_symmetry_multiplicity
_atom_site_Wyckoff_symbol
_atom_site_fract_x
_atom_site_fract_y
_atom_site_fract_z
_atom_site_B_iso_or_equiv
_atom_site_occupancy
_atom_site_attached_hydrogens
P1 P5+ 12 b 0.3327(5) 0.0826(4) 0.2444(5) 0.95(6) 1. 0
V1 V3+ 4 a 0.0798(3) -0.0798(3) 0.4202(3) 0.2(13) 1. 0
Na1 Na1+ 4 a 0.0094(6) 0.0094(6) 0.0094(6) 1.56(10) 0.989(7) 0
Na2 Na1+ 4 a 0.3901(8) 0.3901(8) 0.3901(8) 1.56(10) 0.997(3) 0
Na3 Na1+ 4 a 0.7022(7) 0.2022(7) 0.2978(7) 1.56(10) 0.998(2) 0
O1 O2- 12 b 0.2693(4) -0.0261(4) 0.3488(4) 1.03(5) 1. 0
O2 O2- 12 b 0.3711(4) 0.0009(4) 0.1112(4) 0.92(4) 1. 0
O3 O2- 12 b 0.4506(3) 0.1671(4) 0.3065(4) 1.19(5) 1. 0
N1 N3- 4 a 0.1956(3) 0.1956(3) 0.1956(3) 0.88(5) 1. 0
#End of TTdata_258888-ICSD