
#(C) 2019 by FIZ Karlsruhe - Leibniz Institute for Information Infrastructure.  All rights reserved.
data_259181-ICSD
_database_code_ICSD 259181
_audit_creation_date 2018-08-01
_chemical_name_systematic
'Sodium yttrium ytterbium erbium fluoride (1.5/1.2/0.27/0.03/6) - beta phase'
_chemical_formula_structural 'Na1.5 Y1.2 Yb0.27 Er0.03 F6'
_chemical_formula_sum 'Er0.03 F6 Na1.5 Y1.2 Yb0.27'
_exptl_crystal_density_diffrn 4.71
_publ_section_title

;
Average and local crystal structure of beta-Er:Yb:NaYF4 upconverting
nanocrystals probed by X-ray total scattering
;
loop_
_citation_id
_citation_journal_full
_citation_year
_citation_journal_volume
_citation_page_first
_citation_page_last
_citation_journal_id_ASTM
primary 'Chemistry of Materials' 2017 29 6289 6297 CMATEX
loop_
_publ_author_name
'Perera, S. Sameera'
'Amarasinghe, Dinesh K.'
'Dissanayake, K. Tauni'
'Rabuffetti, Federico A.'
_cell_length_a 5.9689(6)
_cell_length_b 5.9689(6)
_cell_length_c 3.5088(5)
_cell_angle_alpha 90.
_cell_angle_beta 90.
_cell_angle_gamma 120.
_cell_volume 108.26
_cell_formula_units_Z 1
_symmetry_space_group_name_H-M 'P 63/m'
_symmetry_Int_Tables_number 176
_refine_ls_R_factor_all 0.026
loop_
_symmetry_equiv_pos_site_id
_symmetry_equiv_pos_as_xyz
1 '-x+y, -x, -z+1/2'
2 '-y, x-y, -z+1/2'
3 'x, y, -z+1/2'
4 'x-y, x, -z'
5 'y, -x+y, -z'
6 '-x, -y, -z'
7 'x-y, x, z+1/2'
8 'y, -x+y, z+1/2'
9 '-x, -y, z+1/2'
10 '-x+y, -x, z'
11 '-y, x-y, z'
12 'x, y, z'
loop_
_atom_type_symbol
_atom_type_oxidation_number
Na1+ 1
Y3+ 3
Yb3+ 3
Er3+ 3
Na1+ 1
F1- -1
loop_
_atom_site_label
_atom_site_type_symbol
_atom_site_symmetry_multiplicity
_atom_site_Wyckoff_symbol
_atom_site_fract_x
_atom_site_fract_y
_atom_site_fract_z
_atom_site_B_iso_or_equiv
_atom_site_occupancy
_atom_site_attached_hydrogens
Na1 Na1+ 2 d 0.6667 0.3333 0.25 0.0071(2) 0.25 0
Y1 Y3+ 2 d 0.6667 0.3333 0.25 0.0071(2) 0.6 0
Yb1 Yb3+ 2 d 0.6667 0.3333 0.25 0.0071(2) 0.135 0
Er1 Er3+ 2 d 0.6667 0.3333 0.25 0.0071(2) 0.015 0
Na2 Na1+ 4 e 0 0 0.963(18) 0.152(8) 0.1667 0
Na3 Na1+ 4 e 0 0 0.289(5) 0.152(8) 0.0833 0
F1 F1- 6 h 0.3159(6) 0.4016(7) 0.25 0.0603(11) 1. 0
#End of TTdata_259181-ICSD