
#(C) 2019 by FIZ Karlsruhe - Leibniz Institute for Information Infrastructure.  All rights reserved.
data_259179-ICSD
_database_code_ICSD 259179
_audit_creation_date 2018-08-01
_chemical_name_systematic
'Sodium yttrium ytterbium erbium fluoride (1.5/1.2/0.27/0.03/6) - beta phase'
_chemical_formula_structural 'Na1.5 Y1.2 Yb0.27 Er0.03 F6'
_chemical_formula_sum 'Er0.03 F6 Na1.5 Y1.2 Yb0.27'
_chemical_name_structure_type NaNdF4
_exptl_crystal_density_diffrn 4.71
_publ_section_title

;
Average and local crystal structure of beta-Er:Yb:NaYF4 upconverting
nanocrystals probed by X-ray total scattering
;
loop_
_citation_id
_citation_journal_full
_citation_year
_citation_journal_volume
_citation_page_first
_citation_page_last
_citation_journal_id_ASTM
primary 'Chemistry of Materials' 2017 29 6289 6297 CMATEX
loop_
_publ_author_name
'Perera, S. Sameera'
'Amarasinghe, Dinesh K.'
'Dissanayake, K. Tauni'
'Rabuffetti, Federico A.'
_cell_length_a 5.9694(5)
_cell_length_b 5.9694(5)
_cell_length_c 3.5091(4)
_cell_angle_alpha 90.
_cell_angle_beta 90.
_cell_angle_gamma 120.
_cell_volume 108.28
_cell_formula_units_Z 1
_symmetry_space_group_name_H-M 'P -6'
_symmetry_Int_Tables_number 174
_refine_ls_R_factor_all 0.022
loop_
_symmetry_equiv_pos_site_id
_symmetry_equiv_pos_as_xyz
1 '-x+y, -x, -z'
2 '-y, x-y, -z'
3 'x, y, -z'
4 '-x+y, -x, z'
5 '-y, x-y, z'
6 'x, y, z'
loop_
_atom_type_symbol
_atom_type_oxidation_number
Y3+ 3
Yb3+ 3
Er3+ 3
Na1+ 1
Y3+ 3
Yb3+ 3
Er3+ 3
Na1+ 1
F1- -1
loop_
_atom_site_label
_atom_site_type_symbol
_atom_site_symmetry_multiplicity
_atom_site_Wyckoff_symbol
_atom_site_fract_x
_atom_site_fract_y
_atom_site_fract_z
_atom_site_B_iso_or_equiv
_atom_site_occupancy
_atom_site_attached_hydrogens
Y1 Y3+ 1 a 0 0 0 0.0146(8) 0.8 0
Yb1 Yb3+ 1 a 0 0 0 0.0146(8) 0.18 0
Er1 Er3+ 1 a 0 0 0 0.0146(8) 0.02 0
Na1 Na1+ 1 f 0.6667 0.3333 0.5 -0.0035(7) 0.5 0
Y2 Y3+ 1 f 0.6667 0.3333 0.5 -0.0035(7) 0.4 0
Yb2 Yb3+ 1 f 0.6667 0.3333 0.5 -0.0035(7) 0.09 0
Er2 Er3+ 1 f 0.6667 0.3333 0.5 -0.0035(7) 0.01 0
Na2 Na1+ 2 h 0.3333 0.6667 0.637(2) 0.051(4) 0.5 0
F1 F1- 3 j 0.6489(18) 0.0671(11) 0 0.0149(17) 1. 0
F2 F1- 3 k 0.7351(18) 0.757(4) 0.5 0.113(4) 1. 0
#End of TTdata_259179-ICSD