
#(C) 2019 by FIZ Karlsruhe - Leibniz Institute for Information Infrastructure.  All rights reserved.
data_259397-ICSD
_database_code_ICSD 259397
_audit_creation_date 2018-08-01
_chemical_name_systematic 'Dicesium sodium trititanium(III) dodecafluoride'
_chemical_formula_structural 'Cs2 Na Ti3 F12'
_chemical_formula_sum 'Cs2 F12 Na1 Ti3'
_exptl_crystal_density_diffrn 3.86
_publ_section_title

;
Various disordered ground states and 1/3 magnetization-plateau-like behavior
in the S = 1/2 Ti3+ kagome lattice antiferromagnets Rb2NaTi3F12, Cs2NaTi3F12,
and Cs2KTi3F12
;
loop_
_citation_id
_citation_journal_full
_citation_year
_citation_journal_volume
_citation_page_first
_citation_page_last
_citation_journal_id_ASTM
primary 'Physical Review B' 2016 94 104432-1 104432-10 PRBHB7
loop_
_publ_author_name
'Goto, Masato'
'Ueda, Hiroaki'
'Michioka, Chishiro'
'Matsuo, Akira'
'Kindo, Koichi'
'Yoshimura, Kazuyoshi'
_cell_length_a 12.8461(6)
_cell_length_b 7.58843
_cell_length_c 7.2631(4)
_cell_angle_alpha 90
_cell_angle_beta 126.530(1)
_cell_angle_gamma 90
_cell_volume 568.92
_cell_formula_units_Z 2
_symmetry_space_group_name_H-M 'P 1 21/m 1'
_symmetry_Int_Tables_number 11
_refine_ls_R_factor_all 0.0283
loop_
_symmetry_equiv_pos_site_id
_symmetry_equiv_pos_as_xyz
1 'x, -y+1/2, z'
2 '-x, -y, -z'
3 '-x, y+1/2, -z'
4 'x, y, z'
loop_
_atom_type_symbol
_atom_type_oxidation_number
Cs1+ 1
Na1+ 1
Ti3+ 3
F1- -1
loop_
_atom_site_label
_atom_site_type_symbol
_atom_site_symmetry_multiplicity
_atom_site_Wyckoff_symbol
_atom_site_fract_x
_atom_site_fract_y
_atom_site_fract_z
_atom_site_B_iso_or_equiv
_atom_site_occupancy
_atom_site_attached_hydrogens
Cs1 Cs1+ 2 e 0.61764(6) 0.75 0.62284(11) 0.0308(3) 1. 0
Cs2 Cs1+ 2 e 0.13620(6) 0.25 0.62515(10) 0.0270(3) 1. 0
Na1 Na1+ 2 e 0.7453(3) 0.25 0.5290(5) 0.0207(8) 1. 0
Ti1 Ti3+ 2 a 0 0 0 0.0117(4) 1. 0
Ti2 Ti3+ 2 b 0.5 0 0 0.0113(4) 1. 0
Ti3 Ti3+ 2 e 0.77446(7) 0.25 0.06786(2) 0.0132(4) 1. 0
F1 F1- 2 e 0.0056(6) 0.25 0.9205(9) 0.0284(13) 1. 0
F2 F1- 4 f 0.5739(4) 0.4459(5) 0.2996(5) 0.02666(9) 1. 0
F3 F1- 4 f 0.1019(4) 0.9359(5) 0.8854(7) 0.0221(8) 1. 0
F4 F1- 4 f 0.1511(4) 0.0300(5) 0.2876(5) 0.0274(9) 1. 0
F5 F1- 2 e 0.5615(5) 0.75 0.0926(8) 0.0224(11) 1. 0
F6 F1- 4 f 0.3359(4) 0.5531(5) 0.9554(7) 0.0294(9) 1. 0
F7 F1- 2 e 0.1450(5) 0.75 0.6196(9) 0.0337(14) 1. 0
F8 F1- 2 e 0.3142(6) 0.75 0.24404(8) 0.0327(14) 1. 0
#End of TTdata_259397-ICSD