
#(C) 2019 by FIZ Karlsruhe - Leibniz Institute for Information Infrastructure.  All rights reserved.
data_259874-ICSD
_database_code_ICSD 259874
_audit_creation_date 2019-02-01
_chemical_name_systematic 'Calcium zinc sodium phosphate (9.12/0.88/1.0/7)'
_chemical_formula_structural 'Ca9.12 Zn0.88 Na1.0 (P O4)7'
_chemical_formula_sum 'Ca9.12 Na1 O28 P7 Zn0.88'
_chemical_name_structure_type Ca9MgNa(PO4)7
_exptl_crystal_density_diffrn 3.22
_publ_section_title

;
Tuning of photoluminescence by co-doping Eu2+, Eu3+ and Tb3+ in Ca9NaZn(PO4)7
phosphor
;
loop_
_citation_id
_citation_journal_full
_citation_year
_citation_journal_volume
_citation_page_first
_citation_page_last
_citation_journal_id_ASTM
primary 'Dyes and Pigments' 2018 150 275 283 DYPIDX
loop_
_publ_author_name
'Wu, Zhan-Chao'
'Wang, Fang-Fang'
'Zhang, Kun'
'Xu, Shi-Cheng'
'Liu, Jie'
'Xia, Zhiguo'
'Wu, Ming-Mei'
_cell_length_a 10.35492(8)
_cell_length_b 10.35492(8)
_cell_length_c 37.0664(3)
_cell_angle_alpha 90.
_cell_angle_beta 90.
_cell_angle_gamma 120.
_cell_volume 3441.94
_cell_formula_units_Z 6
_symmetry_space_group_name_H-M 'R 3 c H'
_symmetry_Int_Tables_number 161
_refine_ls_R_factor_all 0.0494
loop_
_symmetry_equiv_pos_site_id
_symmetry_equiv_pos_as_xyz
1 '-x+y, y, z+1/2'
2 'x, x-y, z+1/2'
3 '-y, -x, z+1/2'
4 '-x+y, -x, z'
5 '-y, x-y, z'
6 'x, y, z'
7 '-x+y+2/3, y+1/3, z+5/6'
8 'x+2/3, x-y+1/3, z+5/6'
9 '-y+2/3, -x+1/3, z+5/6'
10 '-x+y+2/3, -x+1/3, z+1/3'
11 '-y+2/3, x-y+1/3, z+1/3'
12 'x+2/3, y+1/3, z+1/3'
13 '-x+y+1/3, y+2/3, z+1/6'
14 'x+1/3, x-y+2/3, z+1/6'
15 '-y+1/3, -x+2/3, z+1/6'
16 '-x+y+1/3, -x+2/3, z+2/3'
17 '-y+1/3, x-y+2/3, z+2/3'
18 'x+1/3, y+2/3, z+2/3'
loop_
_atom_type_symbol
_atom_type_oxidation_number
Ca2+ 2
Zn2+ 2
Ca2+ 2
Zn2+ 2
Ca2+ 2
Zn2+ 2
Ca2+ 2
Zn2+ 2
Na1+ 1
Ca2+ 2
Zn2+ 2
P5+ 5
O2- -2
loop_
_atom_site_label
_atom_site_type_symbol
_atom_site_symmetry_multiplicity
_atom_site_Wyckoff_symbol
_atom_site_fract_x
_atom_site_fract_y
_atom_site_fract_z
_atom_site_B_iso_or_equiv
_atom_site_occupancy
_atom_site_attached_hydrogens
Ca1 Ca2+ 18 b 0.7286(4) 0.8703(5) 0.1666(2) 0.5(1) 1.00(1) 0
Zn1 Zn2+ 18 b 0.7286(4) 0.8703(5) 0.1666(2) 0.5(1) 0.00(1) 0
Ca2 Ca2+ 18 b 0.6165(4) 0.7923(6) -0.0344(2) 0.5(1) 0.99(2) 0
Zn2 Zn2+ 18 b 0.6165(4) 0.7923(6) -0.0344(2) 0.5(1) 0.01(2) 0
Ca3 Ca2+ 18 b 0.7324(3) 0.8780(4) 0.0596(2) 0.84(9) 0.98(1) 0
Zn3 Zn2+ 18 b 0.7324(3) 0.8780(4) 0.0596(2) 0.84(9) 0.02(1) 0
Ca4 Ca2+ 6 a 0 0 -0.0790(3) 1.0(4) 0.0(2) 0
Zn4 Zn2+ 6 a 0 0 -0.0790(3) 1.0(4) 0.0(2) 0
Na1 Na1+ 6 a 0 0 -0.0790(3) 1.0(4) 1.0(2) 0
Ca5 Ca2+ 6 a 0 0 0.7347(2) 0.50(9) 0.199(2) 0
Zn5 Zn2+ 6 a 0 0 0.7347(2) 0.50(9) 0.81(2) 0
P1 P5+ 6 a 0 0 0 0.50(6) 1. 0
P2 P5+ 18 b 0.6880(4) 0.8265(5) 0.8687(2) 0.50(6) 1. 0
P3 P5+ 18 b 0.6563(6) 0.8069(5) 0.76483(19) 0.50(6) 1. 0
O1 O2- 18 b 0.741(1) 0.8230(9) 0.9079(3) 0.50(8) 1. 0
O2 O2- 18 b 0.722(2) 0.721(1) 0.8473(3) 0.50(8) 1. 0
O3 O2- 18 b 0.756(1) 0.986(1) 0.8553(3) 0.50(8) 1. 0
O4 O2- 18 b 0.5154(11) 0.752(2) 0.8670(4) 0.50(8) 1. 0
O5 O2- 18 b 0.826(1) 0.908(2) 0.7734(3) 0.50(8) 1. 0
O6 O2- 18 b 0.573(1) 0.877(1) 0.7864(3) 0.50(8) 1. 0
O7 O2- 18 b 0.606(1) 0.647(1) 0.7780(4) 0.50(8) 1. 0
O8 O2- 18 b 0.6234(8) 0.799(1) 0.7255(3) 0.50(8) 1. 0
O9 O2- 18 b 0.13993(8) 0.998(1) 0.9875(4) 0.50(8) 1. 0
O10 O2- 6 a 0 0 0.0425(5) 0.50(8) 1. 0
#End of TTdata_259874-ICSD