
#(C) 2019 by FIZ Karlsruhe - Leibniz Institute for Information Infrastructure.  All rights reserved.
data_260052-ICSD
_database_code_ICSD 260052
_audit_creation_date 2009-02-01
_audit_update_record 2018-08-01
_chemical_name_systematic

;
catena-poly(tetrasodium
((cis-dioxido-trans-bis(sulfato-kappaO)molybdate(VI))-mue-sulfato-kappa(2)O:O)
)
;
_chemical_formula_structural 'Na4 (Mo O2 (S O4)3)'
_chemical_formula_sum 'Mo1 Na4 O14 S3'
_exptl_crystal_density_diffrn 2.84
_cell_measurement_temperature 120.
_publ_section_title

;
catena-Poly[tetrasodium
[[cis-dioxido-trans-bis(sulfato-kappaO)molybdate(VI)]-mu-sulfato-kappa(2)O:O']
]
;
loop_
_citation_id
_citation_journal_full
_citation_year
_citation_journal_volume
_citation_page_first
_citation_page_last
_citation_journal_id_ASTM
primary 'Acta Crystallographica, Section E: Structure Reports Online' 2008 64
i73 i73 ACSEBH
loop_
_publ_author_name
'Cline Schaeffer, S.J.'
'Berg, R.W.'
_cell_length_a 8.4739(6)
_cell_length_b 9.2892(7)
_cell_length_c 15.1046(11)
_cell_angle_alpha 90.
_cell_angle_beta 90.
_cell_angle_gamma 90.
_cell_volume 1188.97
_cell_formula_units_Z 4
_symmetry_space_group_name_H-M 'P 21 21 21'
_symmetry_Int_Tables_number 19
_refine_ls_R_factor_all 0.0166
loop_
_symmetry_equiv_pos_site_id
_symmetry_equiv_pos_as_xyz
1 '-x, y+1/2, -z+1/2'
2 'x+1/2, -y+1/2, -z'
3 '-x+1/2, -y, z+1/2'
4 'x, y, z'
loop_
_atom_type_symbol
_atom_type_oxidation_number
Mo6+ 6
S6+ 6
Na1+ 1
O2- -2
loop_
_atom_site_label
_atom_site_type_symbol
_atom_site_symmetry_multiplicity
_atom_site_Wyckoff_symbol
_atom_site_fract_x
_atom_site_fract_y
_atom_site_fract_z
_atom_site_B_iso_or_equiv
_atom_site_occupancy
_atom_site_attached_hydrogens
Mo1 Mo6+ 4 a 0.77389(2) 0.108886(19) 0.426923(11) 0.00683(5) 1 0
S1 S6+ 4 a 0.42167(6) 0.29669(6) 0.38157(3) 0.00770(11) 1 0
S2 S6+ 4 a 0.52730(7) -0.14389(6) 0.48393(3) 0.00870(11) 1 0
S3 S6+ 4 a 0.87553(6) 0.37753(6) 0.29746(3) 0.00819(10) 1 0
Na1 Na1+ 4 a 0.20072(11) 0.58268(10) 0.34042(6) 0.01293(19) 1 0
Na2 Na1+ 4 a 0.80653(11) 0.75841(10) 0.31656(6) 0.01239(19) 1 0
Na3 Na1+ 4 a 0.67303(11) 0.51270(10) 0.46834(6) 0.0144(2) 1 0
Na4 Na1+ 4 a 0.57005(11) 0.46216(10) 0.21305(6) 0.01274(19) 1 0
O1 O2- 4 a 0.70335(19) 0.03236(17) 0.33180(10) 0.0107(3) 1 0
O2 O2- 4 a 0.94651(19) 0.02131(17) 0.44263(11) 0.0119(3) 1 0
O3 O2- 4 a 0.57359(18) 0.25797(17) 0.42577(11) 0.0107(3) 1 0
O4 O2- 4 a 0.6456(2) -0.02040(17) 0.50576(10) 0.0116(3) 1 0
O5 O2- 4 a 0.88450(19) 0.28237(18) 0.38036(10) 0.0120(3) 1 0
O6 O2- 4 a 0.29354(19) 0.27689(17) 0.44854(9) 0.0096(3) 1 0
O7 O2- 4 a 0.3902(2) 0.20606(18) 0.30489(10) 0.0123(3) 1 0
O8 O2- 4 a 0.4313(2) 0.44896(18) 0.35609(11) 0.0124(3) 1 0
O9 O2- 4 a 0.49519(19) -0.20813(17) 0.56967(11) 0.0130(3) 1 0
O10 O2- 4 a 0.60611(19) -0.24259(18) 0.42327(12) 0.0147(3) 1 0
O11 O2- 4 a 0.38958(19) -0.07781(18) 0.44282(11) 0.0139(3) 1 0
O12 O2- 4 a 0.7888(2) 0.29908(17) 0.22934(10) 0.0124(3) 1 0
O13 O2- 4 a 0.7899(2) 0.50790(17) 0.32281(10) 0.0126(3) 1 0
O14 O2- 4 a 1.03833(19) 0.40786(18) 0.27218(10) 0.0133(3) 1 0
loop_
_atom_site_aniso_label
_atom_site_aniso_type_symbol
_atom_site_aniso_U_11
_atom_site_aniso_U_22
_atom_site_aniso_U_33
_atom_site_aniso_U_12
_atom_site_aniso_U_13
_atom_site_aniso_U_23
Mo1 Mo6+ 0.00576(8) 0.00737(9) 0.00738(8) 0.00034(7) -0.00028(6) -0.00021(7)
S1 S6+ 0.0056(2) 0.0096(3) 0.0078(2) 0.0014(2) -0.00017(19) -0.0001(2)
S2 S6+ 0.0073(2) 0.0093(2) 0.0095(2) -0.0009(2) 0.0006(2) -0.00087(19)
S3 S6+ 0.0073(2) 0.0087(2) 0.0086(2) -0.0001(2) 0.00067(18) 0.0004(2)
Na1 Na1+ 0.0125(5) 0.0130(5) 0.0133(4) 0.0022(4) 0.0012(3) 0.0019(3)
Na2 Na1+ 0.0111(5) 0.0126(4) 0.0135(4) 0.0012(4) 0.0018(4) 0.0017(3)
Na3 Na1+ 0.0123(4) 0.0166(5) 0.0145(5) -0.0034(4) 0.0023(4) -0.0024(4)
Na4 Na1+ 0.0107(4) 0.0156(5) 0.0120(4) 0.0010(4) -0.0008(4) 0.0020(4)
O1 O2- 0.0097(8) 0.0119(8) 0.0104(7) 0.0002(6) -0.0002(6) -0.0008(6)
O2 O2- 0.0113(8) 0.0112(8) 0.0130(8) 0.0020(6) -0.0021(6) -0.0007(6)
O3 O2- 0.0086(7) 0.0128(7) 0.0107(7) 0.0044(6) -0.0029(7) -0.0008(7)
O4 O2- 0.0138(8) 0.0116(8) 0.0095(7) -0.0053(7) -0.0018(6) 0.0001(6)
O5 O2- 0.0116(8) 0.0121(8) 0.0122(8) -0.0036(6) -0.0020(6) 0.0042(6)
O6 O2- 0.0080(7) 0.0110(7) 0.0098(7) -0.0010(6) 0.0006(6) -0.0012(6)
O7 O2- 0.0116(8) 0.0162(9) 0.0092(7) 0.0016(7) -0.0016(6) -0.0028(6)
O8 O2- 0.0121(8) 0.0111(8) 0.0140(8) 0.0018(7) 0.0023(7) 0.0023(6)
O9 O2- 0.0141(8) 0.0131(8) 0.0119(7) -0.0042(6) -0.0001(7) 0.0028(7)
O10 O2- 0.0151(8) 0.0119(8) 0.0171(8) -0.0010(7) 0.0051(7) -0.0045(7)
O11 O2- 0.0093(8) 0.0190(9) 0.0133(8) 0.0021(7) -0.0016(6) 0.0017(6)
O12 O2- 0.0141(8) 0.0120(8) 0.0109(7) -0.0002(7) -0.0015(6) -0.0011(6)
O13 O2- 0.0106(8) 0.0108(8) 0.0163(8) 0.0025(7) -0.0008(7) -0.0015(6)
O14 O2- 0.0095(8) 0.0167(9) 0.0136(7) -0.0012(7) 0.0042(6) 0.0008(7)
#End of TTdata_260052-ICSD