
#(C) 2019 by FIZ Karlsruhe - Leibniz Institute for Information Infrastructure.  All rights reserved.
data_26007-ICSD
_database_code_ICSD 26007
_audit_creation_date 1980-01-01
_audit_update_record 2007-08-01
_chemical_name_systematic 'Potassium trisodium tetraalumotetrasilicate'
_chemical_formula_structural 'K Na3 (Al4 Si4 O16)'
_chemical_formula_sum 'Al4 K1 Na3 O16 Si4'
_chemical_name_structure_type KNa3Al4(SiO4)4
_chemical_name_mineral Nepheline
_exptl_crystal_density_diffrn 2.67
_publ_section_title
'Refinement of the crystal structure of a volcanic nepheline'
loop_
_citation_id
_citation_journal_full
_citation_year
_citation_journal_volume
_citation_page_first
_citation_page_last
_citation_journal_id_ASTM
primary 'American Mineralogist' 1972 57 1711 1719 AMMIAY
loop_
_publ_author_name
'Simmons, W.B.'
'Peacor, J.R.'
'Peacor, D.R.'
_cell_length_a 10.003(2)
_cell_length_b 10.003(2)
_cell_length_c 8.381(3)
_cell_angle_alpha 90.
_cell_angle_beta 90.
_cell_angle_gamma 120.
_cell_volume 726.25
_cell_formula_units_Z 2
_symmetry_space_group_name_H-M 'P 63'
_symmetry_Int_Tables_number 173
_refine_ls_R_factor_all 0.062
loop_
_symmetry_equiv_pos_site_id
_symmetry_equiv_pos_as_xyz
1 'x-y, x, z+1/2'
2 'y, -x+y, z+1/2'
3 '-x, -y, z+1/2'
4 '-x+y, -x, z'
5 '-y, x-y, z'
6 'x, y, z'
loop_
_atom_type_symbol
_atom_type_oxidation_number
Na1+ 1
K1+ 1
Al3+ 3
Si4+ 4
Al3+ 3
Si4+ 4
Al3+ 3
Si4+ 4
Al3+ 3
Si4+ 4
O2- -2
loop_
_atom_site_label
_atom_site_type_symbol
_atom_site_symmetry_multiplicity
_atom_site_Wyckoff_symbol
_atom_site_fract_x
_atom_site_fract_y
_atom_site_fract_z
_atom_site_B_iso_or_equiv
_atom_site_occupancy
_atom_site_attached_hydrogens
Na1 Na1+ 6 c 0.9972(2) 0.4432(2) 0.9913(11) . 1. 0
K1 K1+ 2 a 0 0 0.9893 . 1. 0
Al1 Al3+ 2 b 0.3333 0.6667 0.1877(11) . 0.5 0
Si1 Si4+ 2 b 0.3333 0.6667 0.1877(11) . 0.5 0
Al2 Al3+ 2 b 0.3333 0.6667 0.7990(11) . 0.5 0
Si2 Si4+ 2 b 0.3333 0.6667 0.7990(11) . 0.5 0
Al3 Al3+ 6 c 0.0933(2) 0.3344(2) 0.309(1) . 0.2 0
Si3 Si4+ 6 c 0.0933(2) 0.3344(2) 0.309(1) . 0.8 0
Al4 Al3+ 6 c 0.0934(2) 0.3318(2) 0.6824(10) . 0.8 0
Si4 Si4+ 6 c 0.0934(2) 0.3318(2) 0.6824(10) . 0.2 0
O1 O2- 6 c 0.3327(53) 0.7024(36) 0.9846(41) . 0.3333 0
O2 O2- 6 c 0.0269(4) 0.3168(5) 0.4921(31) . 1. 0
O3 O2- 6 c 0.1713(7) 0.5235(8) 0.7210(14) . 1. 0
O4 O2- 6 c 0.1647(5) 0.5108(6) 0.2393(12) . 1. 0
O5 O2- 6 c 0.2258(5) 0.2873(6) 0.3099(12) . 1. 0
O6 O2- 6 c 0.2229(6) 0.2657(6) 0.6892(15) . 1. 0
loop_
_atom_site_aniso_label
_atom_site_aniso_type_symbol
_atom_site_aniso_beta_11
_atom_site_aniso_beta_22
_atom_site_aniso_beta_33
_atom_site_aniso_beta_12
_atom_site_aniso_beta_13
_atom_site_aniso_beta_23
Na1 Na1+ 0.0082(3) 0.0050(2) 0.0054(3) 0.0032(2) 0.0004(4) 0.0003(4)
K1 K1+ 0.0102(3) 0.0102 0.0097(5) 0.0051 0 0
Al1 Al3+ 0.0036(3) 0.0036 0.0035(5) 0.0018 0 0
Si1 Si4+ 0.0036(3) 0.0036 0.0035(5) 0.0018 0 0
Al2 Al3+ 0.0060(4) 0.006 0.0040(5) 0.003 0 0
Si2 Si4+ 0.0060(4) 0.006 0.0040(5) 0.003 0 0
Al3 Al3+ 0.0021(2) 0.0023(2) 0.0044(3) 0.0009(1) -.0009(2) -.0003(2)
Si3 Si4+ 0.0021(2) 0.0023(2) 0.0044(3) 0.0009(1) -.0009(2) -.0003(2)
Al4 Al3+ 0.0027(2) 0.0033(2) 0.0027(3) 0.0016(2) -.0012(2) -.0005(2)
Si4 Si4+ 0.0027(2) 0.0033(2) 0.0027(3) 0.0016(2) -.0012(2) -.0005(2)
O1 O2- 0.0113(18) 0.0079(38) 0.0105(29) 0.0081(31) -.0083(27) -.0068(27)
O2 O2- 0.0062(5) 0.0120(6) 0.0044(6) 0.0061(5) -.0021(7) -.0018(8)
O3 O2- 0.0066(8) 0.0057(7) 0.0183(15) 0.0035(6) 0.0001(8) 0.0022(8)
O4 O2- 0.0022(5) 0.0022(4) 0.0103(7) 0.0005(4) -.0004(5) 0.0016(5)
O5 O2- 0.0037(5) 0.0069(6) 0.0029(7) 0.0038(4) -.0005(5) 0.0000(6)
O6 O2- 0.0063(6) 0.0044(5) 0.0082(9) 0.0038(5) -.0011(6) 0.0003(6)
#End of TTdata_26007-ICSD