
#(C) 2019 by FIZ Karlsruhe - Leibniz Institute for Information Infrastructure.  All rights reserved.
data_26018-ICSD
_database_code_ICSD 26018
_audit_creation_date 1980-12-31
_audit_update_record 2010-02-01
_chemical_name_systematic 'Tripotassium sodium bis(sulfate(VI))'
_chemical_formula_structural 'K3 Na (S O4)2'
_chemical_formula_sum 'K3 Na1 O8 S2'
_chemical_name_structure_type K3Na(SO4)2
_chemical_name_mineral Aphthitalite
_exptl_crystal_density_diffrn 2.7
_publ_section_title
'Structures of potassium sodium sulphate and tripotassium sodium disulphate'
loop_
_citation_id
_citation_journal_full
_citation_year
_citation_journal_volume
_citation_page_first
_citation_page_last
_citation_journal_id_ASTM
primary

;
Acta Crystallographica, Section B: Structural Crystallography and Crystal
Chemistry
; 1980 36 919 921 ACBCAR
loop_
_publ_author_name
'Okada, K.'
'Ossaka, J.'
_cell_length_a 5.6801(6)
_cell_length_b 5.6801(6)
_cell_length_c 7.309(3)
_cell_angle_alpha 90.
_cell_angle_beta 90.
_cell_angle_gamma 120.
_cell_volume 204.22
_cell_formula_units_Z 1
_symmetry_space_group_name_H-M 'P -3 m 1'
_symmetry_Int_Tables_number 164
_refine_ls_R_factor_all 0.042
loop_
_symmetry_equiv_pos_site_id
_symmetry_equiv_pos_as_xyz
1 'x-y, -y, -z'
2 '-x, -x+y, -z'
3 'y, x, -z'
4 'x-y, x, -z'
5 'y, -x+y, -z'
6 '-x, -y, -z'
7 '-x+y, y, z'
8 'x, x-y, z'
9 '-y, -x, z'
10 '-x+y, -x, z'
11 '-y, x-y, z'
12 'x, y, z'
loop_
_atom_type_symbol
_atom_type_oxidation_number
K1+ 1
Na1+ 1
K1+ 1
S6+ 6
O2- -2
loop_
_atom_site_label
_atom_site_type_symbol
_atom_site_symmetry_multiplicity
_atom_site_Wyckoff_symbol
_atom_site_fract_x
_atom_site_fract_y
_atom_site_fract_z
_atom_site_B_iso_or_equiv
_atom_site_occupancy
_atom_site_attached_hydrogens
K1 K1+ 1 a 0 0 0 . 1. 0
Na1 Na1+ 1 b 0 0 0.5 . 1. 0
K2 K1+ 2 d 0.6667 0.3333 0.6831(2) . 1. 0
S1 S6+ 2 d 0.6667 0.3333 0.2338(2) . 1. 0
O1 O2- 2 d 0.6667 0.3333 0.0316(8) . 1. 0
O2 O2- 6 i 0.8073(3) -.8073 0.3018(4) . 1. 0
loop_
_atom_site_aniso_label
_atom_site_aniso_type_symbol
_atom_site_aniso_U_11
_atom_site_aniso_U_22
_atom_site_aniso_U_33
_atom_site_aniso_U_12
_atom_site_aniso_U_13
_atom_site_aniso_U_23
K1 K1+ 0.0321(6) 0.0321 0.0268(8) 0.016 0 0
Na1 Na1+ 0.0172(8) 0.0172 0.0153(12) 0.0086 0 0
K2 K1+ 0.0201(4) 0.0201 0.0236(5) 0.01 0 0
S1 S6+ 0.0110(3) 0.011 0.0112(4) 0.0055 0 0
O1 O2- 0.0432(20) 0.0432 0.0286(22) 0.0216 0 0
O2 O2- 0.0236(9) 0.0236 0.0354(12) 0.014(1) -.0021(5) 0.0021
#End of TTdata_26018-ICSD