
#(C) 2019 by FIZ Karlsruhe - Leibniz Institute for Information Infrastructure.  All rights reserved.
data_260174-ICSD
_database_code_ICSD 260174
_audit_creation_date 2009-08-01
_audit_update_record 2011-02-01
_chemical_name_systematic 'Potassium sodium copper(II) tetrasilicate'
_chemical_formula_structural 'K Na Cu (Si4 O10)'
_chemical_formula_sum 'Cu1 K1 Na1 O10 Si4'
_chemical_name_structure_type KNaFeS14O10
_chemical_name_mineral Litidionite
_exptl_crystal_density_diffrn 2.9
_cell_measurement_temperature 296.
_publ_section_title
'Magnetic properties of K Na M Si4 O10 compounds (M = Mn, Fe, Cu)'
loop_
_citation_id
_citation_journal_full
_citation_year
_citation_journal_volume
_citation_page_first
_citation_page_last
_citation_journal_id_ASTM
primary 'Journal of Solid State Chemistry' 2009 182 253 258 JSSCBI
loop_
_publ_author_name
'Brandao, P.'
'Rocha, J.'
'Reis, M.S.'
'dos Santos, A.M.'
'Jin, R.'
_cell_length_a 6.9704(4)
_cell_length_b 8.0111(5)
_cell_length_c 9.7896(9)
_cell_angle_alpha 105.559(5)
_cell_angle_beta 99.534(5)
_cell_angle_gamma 114.156(4)
_cell_volume 456.32
_cell_formula_units_Z 2
_symmetry_space_group_name_H-M 'P -1'
_symmetry_Int_Tables_number 2
_refine_ls_R_factor_all 0.0492
loop_
_symmetry_equiv_pos_site_id
_symmetry_equiv_pos_as_xyz
1 '-x, -y, -z'
2 'x, y, z'
loop_
_atom_type_symbol
_atom_type_oxidation_number
Cu2+ 2
K1+ 1
Na1+ 1
Si4+ 4
O2- -2
loop_
_atom_site_label
_atom_site_type_symbol
_atom_site_symmetry_multiplicity
_atom_site_Wyckoff_symbol
_atom_site_fract_x
_atom_site_fract_y
_atom_site_fract_z
_atom_site_B_iso_or_equiv
_atom_site_occupancy
_atom_site_attached_hydrogens
Cu1 Cu2+ 2 i 0.33764(12) 0.87111(11) 1.08760(8) 0.00953(18) 1 0
K1 K1+ 2 i 0.1652(3) 0.7969(2) 0.49606(17) 0.0207(3) 1 0
Na1 Na1+ 2 i 0.1625(5) 1.1287(4) 0.9084(3) 0.0188(6) 1 0
Si1 Si4+ 2 i 0.3119(3) 1.1738(2) 0.35912(18) 0.0081(3) 1 0
Si2 Si4+ 2 i 0.3438(3) 0.6171(2) 0.77415(18) 0.0083(3) 1 0
Si3 Si4+ 2 i 0.4582(3) 1.2878(2) 0.71053(18) 0.0073(3) 1 0
Si4 Si4+ 2 i 0.0661(3) 0.3543(2) 0.22202(18) 0.0088(3) 1 0
O1 O2- 2 i 0.4673(7) 0.7918(7) 0.9322(5) 0.0148(9) 1 0
O2 O2- 2 i 0.3550(9) 1.1848(7) 0.5303(5) 0.0195(10) 1 0
O3 O2- 2 i 0.4550(7) 0.6681(7) 0.6477(5) 0.0132(8) 1 0
O4 O2- 2 i 0.0541(7) 0.7982(7) 0.9446(5) 0.0145(9) 1 0
O5 O2- 2 i 0.2210(8) 0.9575(6) 1.2468(5) 0.0143(9) 1 0
O6 O2- 2 i 0.0897(7) 0.5678(7) 0.7053(5) 0.0128(8) 1 0
O7 O2- 2 i 0.5825(7) 0.8843(6) 1.2281(5) 0.0109(8) 1 0
O8 O2- 2 i -0.3276(8) 0.5934(7) 0.2285(6) 0.0175(10) 1 0
O9 O2- 2 i 0.2840(8) 0.5528(7) 0.2436(6) 0.0195(10) 1 0
O10 O2- 2 i -0.1322(8) 0.7482(7) 0.6674(5) 0.0145(9) 1 0
loop_
_atom_site_aniso_label
_atom_site_aniso_type_symbol
_atom_site_aniso_U_11
_atom_site_aniso_U_22
_atom_site_aniso_U_33
_atom_site_aniso_U_12
_atom_site_aniso_U_13
_atom_site_aniso_U_23
Cu1 Cu2+ 0.0108(3) 0.0111(3) 0.0073(3) 0.0064(3) 0.0021(2) 0.0027(3)
K1 K1+ 0.0243(8) 0.0121(6) 0.0194(7) 0.0053(5) 0.0057(6) 0.0026(5)
Na1 Na1+ 0.0160(13) 0.0221(13) 0.0171(13) 0.0086(11) 0.0061(10) 0.0057(11)
Si1 Si4+ 0.0095(7) 0.0087(7) 0.0061(7) 0.0047(6) 0.0018(5) 0.0029(6)
Si2 Si4+ 0.0076(7) 0.0084(7) 0.0088(7) 0.0045(6) 0.0023(5) 0.0022(6)
Si3 Si4+ 0.0087(7) 0.0072(6) 0.0068(7) 0.0040(6) 0.0026(5) 0.0035(5)
Si4 Si4+ 0.0069(7) 0.0084(7) 0.0103(7) 0.0039(6) 0.0019(5) 0.0025(6)
O1 O2- 0.012(2) 0.017(2) 0.011(2) 0.0057(17) 0.0025(16) 0.0001(17)
O2 O2- 0.034(3) 0.013(2) 0.008(2) 0.008(2) 0.0041(19) 0.0057(17)
O3 O2- 0.012(2) 0.014(2) 0.013(2) 0.0041(17) 0.0060(16) 0.0071(17)
O4 O2- 0.011(2) 0.016(2) 0.013(2) 0.0078(17) 0.0009(16) -0.0006(17)
O5 O2- 0.015(2) 0.0094(19) 0.013(2) 0.0044(17) 0.0045(17) -0.0011(16)
O6 O2- 0.010(2) 0.017(2) 0.0106(19) 0.0095(17) 0.0017(15) 0.0012(17)
O7 O2- 0.014(2) 0.0103(18) 0.0114(19) 0.0061(16) 0.0030(16) 0.0080(16)
O8 O2- 0.022(2) 0.014(2) 0.026(3) 0.0134(19) 0.015(2) 0.0094(19)
O9 O2- 0.010(2) 0.013(2) 0.032(3) 0.0022(17) 0.0031(19) 0.012(2)
O10 O2- 0.014(2) 0.017(2) 0.018(2) 0.0103(18) 0.0056(17) 0.0101(18)
#End of TTdata_260174-ICSD