
#(C) 2019 by FIZ Karlsruhe - Leibniz Institute for Information Infrastructure.  All rights reserved.
data_260175-ICSD
_database_code_ICSD 260175
_audit_creation_date 2009-08-01
_chemical_name_systematic 'Potassium sodium iron(II) tetrasilicate'
_chemical_formula_structural 'K Na Fe (Si4 O10)'
_chemical_formula_sum 'Fe1 K1 Na1 O10 Si4'
_chemical_name_structure_type KNaFeS14O10
_chemical_name_mineral Fenaksite
_exptl_crystal_density_diffrn 2.78
_cell_measurement_temperature 296.
_publ_section_title
'Magnetic properties of K Na M Si4 O10 compounds (M = Mn, Fe, Cu)'
loop_
_citation_id
_citation_journal_full
_citation_year
_citation_journal_volume
_citation_page_first
_citation_page_last
_citation_journal_id_ASTM
primary 'Journal of Solid State Chemistry' 2009 182 253 258 JSSCBI
loop_
_publ_author_name
'Brandao, P.'
'Rocha, J.'
'Reis, M.S.'
'dos Santos, A.M.'
'Jin, R.'
_cell_length_a 6.9742(3)
_cell_length_b 8.1326(3)
_cell_length_c 9.9301(4)
_cell_angle_alpha 105.778(2)
_cell_angle_beta 100.060(2)
_cell_angle_gamma 114.2620(10)
_cell_volume 467.05
_cell_formula_units_Z 2
_symmetry_space_group_name_H-M 'P -1'
_symmetry_Int_Tables_number 2
_refine_ls_R_factor_all 0.0297
loop_
_symmetry_equiv_pos_site_id
_symmetry_equiv_pos_as_xyz
1 '-x, -y, -z'
2 'x, y, z'
loop_
_atom_type_symbol
_atom_type_oxidation_number
Fe2+ 2
Si4+ 4
K1+ 1
Na1+ 1
O2- -2
loop_
_atom_site_label
_atom_site_type_symbol
_atom_site_symmetry_multiplicity
_atom_site_Wyckoff_symbol
_atom_site_fract_x
_atom_site_fract_y
_atom_site_fract_z
_atom_site_B_iso_or_equiv
_atom_site_occupancy
_atom_site_attached_hydrogens
Fe1 Fe2+ 2 i 0.65650(2) 1.10800(2) 0.406521(16) 0.00959(3) 1 0
Si1 Si4+ 2 i 0.46815(5) 1.30243(4) 0.21398(3) 0.00694(5) 1 0
Si2 Si4+ 2 i 0.37394(4) 0.64107(4) 0.27093(3) 0.00757(5) 1 0
Si3 Si4+ 2 i 0.70690(5) 0.82667(4) 0.13186(3) 0.00794(5) 1 0
Si4 Si4+ 2 i 0.94245(5) 0.64143(4) 0.27235(3) 0.00819(5) 1 0
K1 K1+ 2 i 0.15803(5) 0.79726(4) -0.01004(3) 0.02063(5) 1 0
Na1 Na1+ 2 i 0.16344(9) 1.13769(10) 0.40979(6) 0.02261(12) 1 0
O1 O2- 2 i 0.42910(13) 1.14250(12) 0.28292(9) 0.01173(12) 1 0
O2 O2- 2 i 0.80044(14) 1.04432(12) 0.23933(9) 0.01443(14) 1 0
O3 O2- 2 i 0.50591(13) 0.83013(12) 0.41928(8) 0.01162(12) 1 0
O4 O2- 2 i 0.67453(15) 0.81029(14) -0.03836(9) 0.01695(16) 1 0
O5 O2- 2 i 0.72649(14) 1.43266(13) 0.23103(11) 0.01698(16) 1 0
O6 O2- 2 i 1.11246(12) 0.57942(13) 0.20749(9) 0.01328(14) 1 0
O7 O2- 2 i 0.88130(15) 0.74610(15) 0.16579(11) 0.01709(15) 1 0
O8 O2- 2 i 1.04219(14) 0.78277(15) 0.44056(9) 0.01758(17) 1 0
O9 O2- 2 i 0.46703(13) 0.67452(13) 0.13524(9) 0.01323(13) 1 0
O10 O2- 2 i 0.37814(16) 1.44909(14) 0.28854(11) 0.01688(15) 1 0
loop_
_atom_site_aniso_label
_atom_site_aniso_type_symbol
_atom_site_aniso_U_11
_atom_site_aniso_U_22
_atom_site_aniso_U_33
_atom_site_aniso_U_12
_atom_site_aniso_U_13
_atom_site_aniso_U_23
Fe1 Fe2+ 0.00924(5) 0.01052(6) 0.00935(5) 0.00550(5) 0.00206(4) 0.00374(4)
Si1 Si4+ 0.00704(10) 0.00758(11) 0.00687(9) 0.00370(9) 0.00257(8) 0.00329(8)
Si2 Si4+ 0.00615(9) 0.00808(11) 0.00889(10) 0.00401(9) 0.00291(8) 0.00266(8)
Si3 Si4+ 0.00793(10) 0.00973(11) 0.00638(10) 0.00423(9) 0.00232(8) 0.00349(8)
Si4 Si4+ 0.00564(9) 0.00922(11) 0.00923(10) 0.00384(9) 0.00235(8) 0.00252(9)
K1 K1+ 0.02535(12) 0.01368(10) 0.02169(11) 0.00781(9) 0.01061(10) 0.00588(9)
Na1 Na1+ 0.0164(2) 0.0355(3) 0.0158(2) 0.0141(2) 0.00643(18) 0.0065(2)
O1 O2- 0.0125(3) 0.0133(3) 0.0132(3) 0.0073(3) 0.0045(2) 0.0087(3)
O2 O2- 0.0167(3) 0.0113(3) 0.0124(3) 0.0056(3) 0.0059(3) 0.0017(3)
O3 O2- 0.0113(3) 0.0108(3) 0.0095(3) 0.0040(2) 0.0023(2) 0.0022(2)
O4 O2- 0.0195(4) 0.0162(4) 0.0069(3) 0.0022(3) 0.0016(2) 0.0047(3)
O5 O2- 0.0087(3) 0.0131(3) 0.0263(4) 0.0027(3) 0.0061(3) 0.0076(3)
O6 O2- 0.0068(3) 0.0151(3) 0.0145(3) 0.0059(3) 0.0026(2) 0.0005(3)
O7 O2- 0.0158(3) 0.0225(4) 0.0234(4) 0.0134(3) 0.0089(3) 0.0152(3)
O8 O2- 0.0116(3) 0.0238(4) 0.0112(3) 0.0086(3) 0.0019(2) -0.0009(3)
O9 O2- 0.0102(3) 0.0151(3) 0.0108(3) 0.0031(3) 0.0048(2) 0.0041(3)
O10 O2- 0.0242(4) 0.0163(4) 0.0224(4) 0.0157(3) 0.0146(3) 0.0108(3)
#End of TTdata_260175-ICSD