
#(C) 2019 by FIZ Karlsruhe - Leibniz Institute for Information Infrastructure.  All rights reserved.
data_260207-ICSD
_database_code_ICSD 260207
_audit_creation_date 2009-08-01
_chemical_name_systematic

;
Tetrasodium
(dihydrogenheptaoxidodigermanato)bis(dihydrogentetraoxidogermanato)dicopper(II
) monohydrate
;
_chemical_formula_structural 'Na4 (Cu2 (H2 Ge2 O7) (H2 Ge O4)2) (H2 O)'
_chemical_formula_sum 'H8 Cu2 Ge4 Na4 O16'
_exptl_crystal_density_diffrn 3.47
_cell_measurement_temperature 293.
_publ_section_title

;
Tetrasodium
(dihydrogenheptaoxidodigermanato)bis(dihydrogentetraoxidogermanato)\
dicopper(II) monohydrate
;
loop_
_citation_id
_citation_journal_full
_citation_year
_citation_journal_volume
_citation_page_first
_citation_page_last
_citation_journal_id_ASTM
primary 'Acta Crystallographica, Section E: Structure Reports Online' 2009 65
i27 i27 ACSEBH
loop_
_publ_author_name
'Li Yafeng'
'Li Danping'
'Shi Cuili'
'Hu Yongsheng'
'Jin Li'
_cell_length_a 13.041(3)
_cell_length_b 8.7440(17)
_cell_length_c 12.975(3)
_cell_angle_alpha 90.
_cell_angle_beta 90.
_cell_angle_gamma 90.
_cell_volume 1479.55
_cell_formula_units_Z 4
_symmetry_space_group_name_H-M 'P b c n'
_symmetry_Int_Tables_number 60
_refine_ls_R_factor_all 0.0405
loop_
_symmetry_equiv_pos_site_id
_symmetry_equiv_pos_as_xyz
1 'x, -y, z+1/2'
2 '-x+1/2, y+1/2, z'
3 'x+1/2, y+1/2, -z+1/2'
4 '-x, -y, -z'
5 '-x, y, -z+1/2'
6 'x+1/2, -y+1/2, -z'
7 '-x+1/2, -y+1/2, z+1/2'
8 'x, y, z'
loop_
_atom_type_symbol
_atom_type_oxidation_number
Ge4+ 4
Cu2+ 2
Na1+ 1
O2- -2
H1+ 1
O2- -2
H1+ 1
O2- -2
H1+ 1
O2- -2
H1+ 1
loop_
_atom_site_label
_atom_site_type_symbol
_atom_site_symmetry_multiplicity
_atom_site_Wyckoff_symbol
_atom_site_fract_x
_atom_site_fract_y
_atom_site_fract_z
_atom_site_B_iso_or_equiv
_atom_site_occupancy
_atom_site_attached_hydrogens
Ge1 Ge4+ 8 d 0.12245(4) 0.12598(6) 0.00099(3) 0.0080(2) 1 0
Ge2 Ge4+ 8 d 0.37958(4) 0.11778(5) 0.25132(4) 0.0076(2) 1 0
Cu1 Cu2+ 8 d 0.25095(4) 0.37556(6) 0.12703(4) 0.0059(2) 1 0
Na1 Na1+ 4 b 0.5 0. 0.5 0.0192(8) 1 0
Na2 Na1+ 4 c 0.5 0.4894(4) 0.25 0.0183(8) 1 0
Na3 Na1+ 8 d 0.14907(19) 0.2426(3) 0.37481(16) 0.0160(5) 1 0
O1 O2- 8 d 0.1236(3) -0.0089(4) 0.0976(3) 0.0112(9) 1 0
O2 O2- 8 d 0.1320(3) 0.0301(5) -0.1209(3) 0.0133(8) 1 0
H1 H1+ 8 d 0.0851 0.058 -0.1585 0.070(18) 1 0
O3 O2- 8 d 0.0009(3) 0.2188(5) 0.0010(3) 0.0137(9) 1 0
H2 H1+ 8 d -0.0382 0.1736 -0.038 0.070(18) 1 0
O4 O2- 8 d 0.2169(3) 0.2639(5) 0.0013(3) 0.0108(8) 1 0
O5 O2- 8 d 0.3686(3) 0.0205(5) 0.3725(3) 0.0140(9) 1 0
H3 H1+ 8 d 0.3402 0.0765 0.4144 0.070(18) 1 0
O6 O2- 4 c 0.5 0.2115(6) 0.25 0.0106(11) 1 0
O7 O2- 8 d 0.1210(3) 0.4809(4) 0.1556(3) 0.0121(8) 1 0
O8 O2- 8 d 0.2863(3) 0.2583(4) 0.2509(3) 0.0105(7) 1 0
O9 O2- 4 c 0. 0.2609(7) 0.25 0.0170(12) 1 0
H4 H1+ 8 d 0.023(5) 0.333(6) 0.212(5) 0.02 1 0
loop_
_atom_site_aniso_label
_atom_site_aniso_type_symbol
_atom_site_aniso_U_11
_atom_site_aniso_U_22
_atom_site_aniso_U_33
_atom_site_aniso_U_12
_atom_site_aniso_U_13
_atom_site_aniso_U_23
Ge1 Ge4+ 0.0107(4) 0.0072(4) 0.0060(3) -0.00028(19) -0.0002(2) 0.00003(17)
Ge2 Ge4+ 0.0096(3) 0.0070(3) 0.0062(3) 0.00035(18) -0.0004(2) -0.0002(2)
Cu1 Cu2+ 0.0074(4) 0.0073(4) 0.0031(4) 0.0001(2) -0.0005(2) -0.0002(2)
Na1 Na1+ 0.0245(19) 0.0161(18) 0.0170(18) 0.0027(13) -0.0063(16) -0.0008(11)
Na2 Na1+ 0.0247(18) 0.0139(17) 0.0163(17) 0. 0.0081(16) 0.
Na3 Na1+ 0.0181(11) 0.0138(12) 0.0160(11) -0.0008(8) -0.0016(9) 0.0011(9)
O1 O2- 0.012(2) 0.0102(18) 0.0114(19) 0.0010(13) 0.0034(16) 0.0044(14)
O2 O2- 0.015(2) 0.013(2) 0.0116(18) -0.0015(15) 0.0031(18) 0.0007(15)
O3 O2- 0.0143(19) 0.013(2) 0.013(2) 0.0034(15) 0.001(2) -0.0005(13)
O4 O2- 0.0148(19) 0.013(2) 0.0050(15) -0.0053(16) -0.0005(15) -0.0022(14)
O5 O2- 0.017(2) 0.012(2) 0.0123(19) 0.0009(15) 0.000(2) 0.0003(16)
O6 O2- 0.007(2) 0.011(3) 0.014(2) 0. -0.002(2) 0.
O7 O2- 0.012(2) 0.0115(19) 0.0130(19) -0.0026(14) -0.0013(16) -0.0037(15)
O8 O2- 0.0126(18) 0.0107(18) 0.0081(15) 0.0021(14) 0.0001(15) 0.0047(16)
O9 O2- 0.023(3) 0.012(3) 0.016(3) 0. 0.006(3) 0.
#End of TTdata_260207-ICSD