
#(C) 2019 by FIZ Karlsruhe - Leibniz Institute for Information Infrastructure.  All rights reserved.
data_260276-ICSD
_database_code_ICSD 260276
_audit_creation_date 2009-08-01
_chemical_name_systematic
'Sodium trihydroxooctaoxohexaborate boric acid hexahydrate'
_chemical_formula_structural 'Na (B6 O8 (O H)3) (H3 B O3) (H2 O)6'
_chemical_formula_sum 'H18 B7 Na1 O20'
_exptl_crystal_density_diffrn 1.6
_cell_measurement_temperature 294.
_publ_section_title 'A new sodium borate: Na [B6 O8 (O H)3] Â· 6H2 O Â· H3 B O3'
loop_
_citation_id
_citation_journal_full
_citation_year
_citation_journal_volume
_citation_page_first
_citation_page_last
_citation_journal_id_ASTM
primary 'Zeitschrift fuer Anorganische und Allgemeine Chemie (1950) (DE)' 2009
635 563 566 ZAACAB
loop_
_publ_author_name
'Koese, D.A.'
'Zuemreoglu-Karan, B.'
'Hoekelek, T.'
'Sahin, E.'
_cell_length_a 10.2265(2)
_cell_length_b 12.2870(3)
_cell_length_c 14.9926(4)
_cell_angle_alpha 90.
_cell_angle_beta 105.450(10)
_cell_angle_gamma 90.
_cell_volume 1815.79
_cell_formula_units_Z 4
_symmetry_space_group_name_H-M 'P 1 21/c 1'
_symmetry_Int_Tables_number 14
_refine_ls_R_factor_all 0.0883
loop_
_symmetry_equiv_pos_site_id
_symmetry_equiv_pos_as_xyz
1 'x, -y+1/2, z+1/2'
2 '-x, -y, -z'
3 '-x, y+1/2, -z+1/2'
4 'x, y, z'
loop_
_atom_type_symbol
_atom_type_oxidation_number
Na1+ 1
B3+ 3
O2- -2
H1+ 1
O2- -2
H1+ 1
O2- -2
H1+ 1
O2- -2
H1+ 1
O2- -2
H1+ 1
O2- -2
H1+ 1
O2- -2
H1+ 1
O2- -2
H1+ 1
O2- -2
H1+ 1
O2- -2
H1+ 1
O2- -2
H1+ 1
O2- -2
H1+ 1
loop_
_atom_site_label
_atom_site_type_symbol
_atom_site_symmetry_multiplicity
_atom_site_Wyckoff_symbol
_atom_site_fract_x
_atom_site_fract_y
_atom_site_fract_z
_atom_site_B_iso_or_equiv
_atom_site_occupancy
_atom_site_attached_hydrogens
Na1 Na1+ 4 e -0.09863(13) 0.55770(9) 0.12387(9) 0.0291(4) 1 0
B1 B3+ 4 e 0.0929(4) 0.6922(3) 0.2777(3) 0.0339(8) 1 0
B2 B3+ 4 e 0.0443(4) 0.6283(3) 0.4218(3) 0.0372(8) 1 0
B3 B3+ 4 e 0.0776(4) 0.4864(3) 0.3139(3) 0.0345(8) 1 0
B4 B3+ 4 e 0.2731(4) 0.3821(3) 0.2914(3) 0.0382(8) 1 0
B5 B3+ 4 e 0.2135(4) 0.5492(3) 0.2006(3) 0.0375(8) 1 0
B6 B3+ 4 e 0.2896(4) 0.7406(3) 0.2212(3) 0.0416(9) 1 0
B7 B3+ 4 e 0.5692(8) 0.8193(7) 0.9285(6) 0.083(2) 1 0
O1 O2- 4 e -0.1646(3) 0.4136(2) 0.0516(2) 0.0465(7) 1 0
H1 H1+ 4 e -0.144(7) 0.341(3) 0.080(4) 0.09(2) 1 0
H2 H1+ 4 e -0.177(7) 0.402(4) -0.0123(17) 0.070(17) 1 0
O2 O2- 4 e -0.2926(3) 0.5960(3) 0.1209(3) 0.0577(9) 1 0
H3 H1+ 4 e -0.367(5) 0.545(4) 0.120(5) 0.09(2) 1 0
H4 H1+ 4 e -0.329(8) 0.662(4) 0.139(8) 0.16(4) 1 0
O3 O2- 4 e -0.1275(3) 0.6488(2) -0.0008(2) 0.0430(6) 1 0
H5 H1+ 4 e -0.115(13) 0.599(13) -0.050(7) 0.30(10) 1 0
H6 H1+ 4 e -0.216(3) 0.676(4) -0.027(4) 0.057(14) 1 0
O4 O2- 4 e -0.0290(3) 0.69357(19) 0.20093(19) 0.0390(6) 1 0
H7 H1+ 4 e -0.0156 0.749 0.1582 0.047 1 0
H8 H1+ 4 e -0.1022 0.7189 0.2255 0.047 1 0
O5 O2- 4 e 0.1024(3) 0.5275(2) 0.11689(18) 0.0403(6) 1 0
O6 O2- 4 e -0.0494(3) 0.4684(2) 0.24359(19) 0.0386(6) 1 0
H9 H1+ 4 e -0.1221 0.4786 0.2733 0.046 1 0
H10 H1+ 4 e -0.0513 0.3924 0.2259 0.046 1 0
O7 O2- 4 e 0.1488(3) 0.57786(18) 0.27803(17) 0.0327(5) 1 0
O8 O2- 4 e 0.0551(3) 0.52088(19) 0.40155(18) 0.0379(6) 1 0
O9 O2- 4 e 0.0662(3) 0.71146(19) 0.36714(18) 0.0399(6) 1 0
O10 O2- 4 e 0.1660(3) 0.39138(19) 0.3287(2) 0.0383(6) 1 0
O11 O2- 4 e 0.2978(3) 0.4548(2) 0.2288(2) 0.0414(6) 1 0
O12 O2- 4 e 0.2955(3) 0.6394(2) 0.1860(2) 0.0438(7) 1 0
O13 O2- 4 e 0.1938(3) 0.7700(2) 0.26492(19) 0.0387(6) 1 0
O14 O2- 4 e 0.0110(4) 0.6581(2) 0.5012(2) 0.0517(8) 1 0
H11 H1+ 4 e -0.008(6) 0.603(3) 0.529(3) 0.061(16) 1 0
O15 O2- 4 e 0.3597(3) 0.2964(2) 0.3213(3) 0.0539(8) 1 0
H12 H1+ 4 e 0.431(5) 0.294(5) 0.288(4) 0.082(19) 1 0
O16 O2- 4 e 0.3881(3) 0.8138(3) 0.2147(3) 0.0611(9) 1 0
H13 H1+ 4 e 0.403(8) 0.859(5) 0.270(4) 0.11(3) 1 0
O17 O2- 4 e 0.6443(17) 0.9124(10) 0.9042(12) 0.248(7) 1 0
H14 H1+ 4 e 0.6009 0.9685 0.9043 0.371 1 0
O18 O2- 4 e 0.4382(11) 0.8385(12) 0.9528(8) 0.235(7) 1 0
H15 H1+ 4 e 0.4102 0.7807 0.968 0.352 1 0
O19 O2- 4 e 0.6119(5) 0.7292(4) 0.9324(5) 0.1026(17) 1 0
H16 H1+ 4 e 0.6853 0.7294 0.9201 0.154 1 0
O20 O2- 4 e 0.5112(5) 0.4645(4) 0.1409(4) 0.0864(14) 1 0
H17 H1+ 4 e 0.458(4) 0.507(3) 0.091(2) 0.029(10) 1 0
H18 H1+ 4 e 0.492(13) 0.391(3) 0.116(7) 0.20(6) 1 0
loop_
_atom_site_aniso_label
_atom_site_aniso_type_symbol
_atom_site_aniso_U_11
_atom_site_aniso_U_22
_atom_site_aniso_U_33
_atom_site_aniso_U_12
_atom_site_aniso_U_13
_atom_site_aniso_U_23
Na1 Na1+ 0.0343(7) 0.0204(6) 0.0355(7) 0.0004(4) 0.0143(5) -0.0005(4)
B1 B3+ 0.0404(19) 0.0222(14) 0.044(2) 0.0000(12) 0.0201(16) -0.0001(13)
B2 B3+ 0.044(2) 0.0295(17) 0.044(2) 0.0005(14) 0.0225(17) 0.0004(14)
B3 B3+ 0.0432(19) 0.0207(14) 0.046(2) 0.0008(12) 0.0232(17) 0.0000(13)
B4 B3+ 0.041(2) 0.0296(17) 0.048(2) 0.0024(14) 0.0186(17) -0.0003(14)
B5 B3+ 0.045(2) 0.0269(16) 0.048(2) 0.0034(14) 0.0246(18) 0.0022(14)
B6 B3+ 0.043(2) 0.0329(19) 0.055(2) -0.0016(15) 0.0239(19) 0.0029(16)
B7 B3+ 0.068(4) 0.077(5) 0.088(5) 0.022(3) -0.008(4) -0.018(4)
O1 O2- 0.0650(18) 0.0311(13) 0.0456(15) 0.0007(12) 0.0188(14) -0.0001(11)
O2 O2- 0.0475(16) 0.0400(15) 0.094(3) -0.0035(12) 0.0330(17) -0.0104(15)
O3 O2- 0.0481(15) 0.0336(13) 0.0488(15) 0.0007(11) 0.0154(12) 0.0008(11)
O4 O2- 0.0432(14) 0.0273(11) 0.0486(14) 0.0023(9) 0.0160(11) -0.0005(9)
O5 O2- 0.0474(14) 0.0366(13) 0.0407(13) 0.0044(10) 0.0185(11) -0.0017(10)
O6 O2- 0.0410(13) 0.0297(11) 0.0472(14) -0.0043(9) 0.0156(11) 0.0015(10)
O7 O2- 0.0400(12) 0.0234(10) 0.0404(13) 0.0004(8) 0.0206(10) -0.0002(8)
O8 O2- 0.0513(15) 0.0261(11) 0.0429(14) 0.0003(9) 0.0238(12) -0.0002(9)
O9 O2- 0.0565(15) 0.0247(11) 0.0464(14) 0.0000(10) 0.0273(12) -0.0012(9)
O10 O2- 0.0446(14) 0.0250(11) 0.0510(15) 0.0020(9) 0.0228(12) 0.0027(9)
O11 O2- 0.0463(14) 0.0333(12) 0.0509(15) 0.0086(10) 0.0239(12) 0.0036(10)
O12 O2- 0.0508(15) 0.0321(12) 0.0598(17) -0.0030(10) 0.0345(13) -0.0001(11)
O13 O2- 0.0408(13) 0.0272(11) 0.0534(15) -0.0028(9) 0.0219(12) 0.0007(10)
O14 O2- 0.088(2) 0.0292(12) 0.0520(16) 0.0052(13) 0.0425(16) 0.0005(11)
O15 O2- 0.0506(16) 0.0392(14) 0.081(2) 0.0111(12) 0.0326(16) 0.0188(14)
O16 O2- 0.0602(19) 0.0428(16) 0.095(3) -0.0146(13) 0.0463(19) -0.0085(16)
O17 O2- 0.240(14) 0.163(10) 0.33(2) 0.016(9) 0.054(13) -0.008(11)
O18 O2- 0.157(8) 0.311(16) 0.199(10) 0.082(9) -0.018(8) -0.095(11)
O19 O2- 0.070(3) 0.094(4) 0.131(4) 0.018(3) 0.006(3) -0.002(3)
O20 O2- 0.069(3) 0.069(3) 0.137(4) -0.001(2) 0.056(3) 0.007(3)
#End of TTdata_260276-ICSD