
#(C) 2019 by FIZ Karlsruhe - Leibniz Institute for Information Infrastructure.  All rights reserved.
data_260614-ICSD
_database_code_ICSD 260614
_audit_creation_date 2010-02-01
_chemical_name_systematic 'Disodium magnesium disulfate decahydrate'
_chemical_formula_structural 'Na2 Mg (S O4)2 (H2 O)10'
_chemical_formula_sum 'H20 Mg1 Na2 O18 S2'
_exptl_crystal_density_diffrn 1.89
_cell_measurement_temperature 180.
_publ_section_title

;
Sodium magnesium sulfate decahydrate, Na2 Mg (S O4)2 * 10 H2 O, a new sulfate
salt
;
loop_
_citation_id
_citation_journal_full
_citation_year
_citation_journal_volume
_citation_page_first
_citation_page_last
_citation_journal_id_ASTM
primary 'Acta Crystallographica, Section C: Crystal Structure Communications'
2009 65 i81 i84 ACSCEE
loop_
_publ_author_name
'Leduc, E.M.S.'
'Peterson, R.C.'
'Wang Ruiyao'
_cell_length_a 12.4950(13)
_cell_length_b 6.4978(7)
_cell_length_c 9.9943(11)
_cell_angle_alpha 90.
_cell_angle_beta 106.3620(10)
_cell_angle_gamma 90.
_cell_volume 778.57
_cell_formula_units_Z 2
_symmetry_space_group_name_H-M 'P 1 21/c 1'
_symmetry_Int_Tables_number 14
_refine_ls_R_factor_all 0.0266
loop_
_symmetry_equiv_pos_site_id
_symmetry_equiv_pos_as_xyz
1 'x, -y+1/2, z+1/2'
2 '-x, -y, -z'
3 '-x, y+1/2, -z+1/2'
4 'x, y, z'
loop_
_atom_type_symbol
_atom_type_oxidation_number
Mg2+ 2
Na1+ 1
S6+ 6
O2- -2
H1+ 1
O2- -2
H1+ 1
O2- -2
H1+ 1
O2- -2
H1+ 1
O2- -2
H1+ 1
loop_
_atom_site_label
_atom_site_type_symbol
_atom_site_symmetry_multiplicity
_atom_site_Wyckoff_symbol
_atom_site_fract_x
_atom_site_fract_y
_atom_site_fract_z
_atom_site_B_iso_or_equiv
_atom_site_occupancy
_atom_site_attached_hydrogens
Mg1 Mg2+ 2 d 0.5 1. 0.5 0.0118(2) 1 0
Na1 Na1+ 4 e 0.98090(6) 0.25420(12) 0.39701(8) 0.0170(2) 1 0
S1 S6+ 4 e 0.77908(4) 0.48352(7) 0.66966(5) 0.01112(13) 1 0
O1 O2- 4 e 0.79840(11) 0.2644(2) 0.70858(14) 0.0168(3) 1 0
O2 O2- 4 e 0.70931(11) 0.5762(2) 0.75259(13) 0.0158(3) 1 0
O3 O2- 4 e 0.88624(11) 0.5912(2) 0.70219(14) 0.0188(3) 1 0
O4 O2- 4 e 0.72047(11) 0.5005(2) 0.51904(13) 0.0154(3) 1 0
O5 O2- 4 e 0.89962(12) 0.5914(2) 0.39621(14) 0.0170(3) 1 0
H1 H1+ 4 e 0.8426(17) 0.582(5) 0.419(3) 0.050(9) 1 0
H2 H1+ 4 e 0.888(2) 0.677(3) 0.333(2) 0.031(7) 1 0
O6 O2- 4 e 0.88617(12) 0.0340(2) 0.52693(15) 0.0189(3) 1 0
H3 H1+ 4 e 0.861(2) 0.096(4) 0.583(2) 0.046(9) 1 0
H4 H1+ 4 e 0.8322(17) -0.019(4) 0.472(2) 0.041(8) 1 0
O7 O2- 4 e 0.40819(12) 0.8376(2) 0.61341(14) 0.0157(3) 1 0
H5 H1+ 4 e 0.370(2) 0.903(4) 0.653(3) 0.042(8) 1 0
H6 H1+ 4 e 0.3726(19) 0.738(3) 0.578(2) 0.035(8) 1 0
O8 O2- 4 e 0.53094(12) 0.7314(2) 0.41183(14) 0.0174(3) 1 0
H7 H1+ 4 e 0.506(2) 0.710(4) 0.3286(16) 0.031(7) 1 0
H8 H1+ 4 e 0.5876(15) 0.665(4) 0.443(2) 0.027(7) 1 0
O9 O2- 4 e 0.63661(11) 0.9643(2) 0.66869(14) 0.0173(3) 1 0
H9 H1+ 4 e 0.662(2) 0.852(3) 0.700(3) 0.033(7) 1 0
H10 H1+ 4 e 0.6866(17) 1.050(3) 0.687(3) 0.033(7) 1 0
loop_
_atom_site_aniso_label
_atom_site_aniso_type_symbol
_atom_site_aniso_U_11
_atom_site_aniso_U_22
_atom_site_aniso_U_33
_atom_site_aniso_U_12
_atom_site_aniso_U_13
_atom_site_aniso_U_23
Mg1 Mg2+ 0.0126(4) 0.0108(5) 0.0120(4) 0.0016(4) 0.0036(3) 0.0006(3)
Na1 Na1+ 0.0158(4) 0.0164(5) 0.0189(4) -0.0011(3) 0.0049(3) 0.0014(3)
S1 S6+ 0.0114(2) 0.0099(3) 0.0125(2) 0.00026(18) 0.00411(17) -0.00003(18)
O1 O2- 0.0211(7) 0.0101(7) 0.0184(7) 0.0035(6) 0.0041(6) 0.0021(5)
O2 O2- 0.0188(7) 0.0131(7) 0.0187(7) 0.0024(6) 0.0105(6) 0.0009(6)
O3 O2- 0.0163(7) 0.0233(8) 0.0180(7) -0.0072(6) 0.0071(5) -0.0053(6)
O4 O2- 0.0148(7) 0.0165(8) 0.0138(6) 0.0016(5) 0.0021(5) 0.0013(5)
O5 O2- 0.0189(7) 0.0159(8) 0.0167(7) 0.0016(6) 0.0057(6) 0.0032(6)
O6 O2- 0.0189(8) 0.0190(9) 0.0193(7) 0.0010(6) 0.0064(6) -0.0037(6)
O7 O2- 0.0169(7) 0.0127(8) 0.0196(7) -0.0017(6) 0.0085(6) -0.0016(6)
O8 O2- 0.0180(7) 0.0165(8) 0.0158(7) 0.0057(6) 0.0014(6) -0.0027(6)
O9 O2- 0.0160(7) 0.0117(8) 0.0207(7) 0.0003(6) -0.0007(6) 0.0023(6)
#End of TTdata_260614-ICSD