
#(C) 2019 by FIZ Karlsruhe - Leibniz Institute for Information Infrastructure.  All rights reserved.
data_260731-ICSD
_database_code_ICSD 260731
_audit_creation_date 2010-08-01
_chemical_name_systematic 'Hexakis(tetraaquasodium) decavanadate(V) dihydrate'
_chemical_formula_structural '(Na (H2 O)4)6 (V10 O28) (H2 O)2'
_chemical_formula_sum 'H52 Na6 O54 V10'
_exptl_crystal_density_diffrn 2.17
_cell_measurement_temperature 100.
_publ_section_title 'Hexakis(tetraaquasodium) decavanadate(V) dihydrate'
loop_
_citation_id
_citation_journal_full
_citation_year
_citation_journal_volume
_citation_page_first
_citation_page_last
_citation_journal_id_ASTM
primary 'Acta Crystallographica, Section E: Structure Reports Online' 2010 66
i30 i31 ACSEBH
loop_
_publ_author_name
'Nilsson, J.'
'Nordlander, E.'
'Behrens, U.'
'Rehder, D'
_cell_length_a 9.6144(9)
_cell_length_b 11.7260(11)
_cell_length_c 11.8691(11)
_cell_angle_alpha 92.4460(10)
_cell_angle_beta 113.5820(10)
_cell_angle_gamma 100.2740(10)
_cell_volume 1197.01
_cell_formula_units_Z 1
_symmetry_space_group_name_H-M 'P -1'
_symmetry_Int_Tables_number 2
_refine_ls_R_factor_all 0.0224
loop_
_symmetry_equiv_pos_site_id
_symmetry_equiv_pos_as_xyz
1 '-x, -y, -z'
2 'x, y, z'
loop_
_atom_type_symbol
_atom_type_oxidation_number
V5+ 5
Na1+ 1
O2- -2
H1+ 1
loop_
_atom_site_label
_atom_site_type_symbol
_atom_site_symmetry_multiplicity
_atom_site_Wyckoff_symbol
_atom_site_fract_x
_atom_site_fract_y
_atom_site_fract_z
_atom_site_B_iso_or_equiv
_atom_site_occupancy
_atom_site_attached_hydrogens
V1 V5+ 2 i 0.32866(3) 0.49894(2) 0.49773(3) 0.00662(7) 1 0
V2 V5+ 2 i 0.36691(3) 0.43084(2) 0.25206(3) 0.00734(7) 1 0
V3 V5+ 2 i 0.52081(3) 0.31293(2) 0.62715(3) 0.00707(7) 1 0
V4 V5+ 2 i 0.22632(3) 0.24259(2) 0.37700(3) 0.00789(7) 1 0
V5 V5+ 2 i 0.54694(3) 0.24381(3) 0.38087(3) 0.00819(7) 1 0
Na1 Na1+ 2 i 0.68380(9) 0.20347(7) -0.04171(7) 0.01458(16) 1 0
Na2 Na1+ 2 i 0.00968(8) -0.06905(6) 0.36995(7) 0.01258(15) 1 0
Na3 Na1+ 2 i 0.20510(8) 0.51845(6) -0.09634(7) 0.01183(15) 1 0
O1 O2- 2 i 0.30955(15) 0.47278(11) 0.11639(11) 0.0112(3) 1 0
O2 O2- 2 i 0.57790(15) 0.27004(11) 0.76214(12) 0.0117(3) 1 0
O3 O2- 2 i 0.06723(14) 0.14613(11) 0.33464(12) 0.0116(3) 1 0
O4 O2- 2 i 0.43595(14) 0.44985(10) 0.65664(11) 0.0074(2) 1 0
O5 O2- 2 i 0.30505(14) 0.54867(10) 0.34087(11) 0.0078(2) 1 0
O6 O2- 2 i 0.32409(14) 0.22657(10) 0.54530(11) 0.0089(2) 1 0
O7 O2- 2 i 0.60556(14) 0.22842(10) 0.54878(11) 0.0089(2) 1 0
O8 O2- 2 i 0.47848(14) 0.32382(10) 0.24227(11) 0.0091(2) 1 0
O9 O2- 2 i 0.19622(14) 0.32182(10) 0.23905(11) 0.0091(2) 1 0
O10 O2- 2 i 0.17201(14) 0.38447(10) 0.44432(11) 0.0092(2) 1 0
O11 O2- 2 i 0.35146(14) 0.16030(10) 0.34055(11) 0.0093(2) 1 0
O12 O2- 2 i 0.45138(13) 0.38945(10) 0.44775(11) 0.0072(2) 1 0
O13 O2- 2 i 0.72840(14) 0.38759(11) 0.45042(11) 0.0091(2) 1 0
O14 O2- 2 i 0.63150(15) 0.15212(11) 0.34249(12) 0.0134(3) 1 0
O15 O2- 2 i 0.08001(15) 0.64704(12) -0.03043(12) 0.0139(3) 1 0
O16 O2- 2 i 0.43615(15) 0.66748(12) -0.03469(12) 0.0136(3) 1 0
O17 O2- 2 i 0.13702(16) 0.61325(13) -0.27889(12) 0.0163(3) 1 0
O18 O2- 2 i 0.31590(15) 0.38521(11) -0.16898(12) 0.0128(3) 1 0
O19 O2- 2 i -0.03436(15) 0.37867(12) -0.19183(12) 0.0139(3) 1 0
O20 O2- 2 i -0.18096(15) -0.01604(11) 0.42273(12) 0.0117(3) 1 0
O21 O2- 2 i 0.76870(16) 0.15411(13) 0.15731(13) 0.0178(3) 1 0
O22 O2- 2 i -0.20085(16) -0.14460(12) 0.17792(13) 0.0178(3) 1 0
O23 O2- 2 i 0.23048(15) -0.07292(11) 0.33278(12) 0.0128(3) 1 0
O24 O2- 2 i 0.01105(16) -0.26635(12) 0.41579(13) 0.0163(3) 1 0
O25 O2- 2 i 0.83366(19) 0.08376(13) -0.08832(14) 0.0236(3) 1 0
O26 O2- 2 i 0.47074(19) 0.03597(14) -0.12596(16) 0.0294(4) 1 0
O27 O2- 2 i 0.8411(2) -0.14147(13) -0.03821(14) 0.0281(4) 1 0
H1 H1+ 2 i 0.0004(18) 0.657(2) -0.0896(15) 0.0406(17) 1 0
H2 H1+ 2 i 0.055(3) 0.642(2) 0.0294(14) 0.0406(17) 1 0
H3 H1+ 2 i 0.459(3) 0.670(2) -0.0956(14) 0.0406(17) 1 0
H4 H1+ 2 i 0.509(2) 0.646(2) 0.0210(16) 0.0406(17) 1 0
H5 H1+ 2 i 0.178(2) 0.601(3) -0.3279(17) 0.0406(17) 1 0
H6 H1+ 2 i 0.0421(8) 0.605(3) -0.3240(18) 0.0406(17) 1 0
H7 H1+ 2 i 0.349(3) 0.402(2) -0.2226(19) 0.0406(17) 1 0
H8 H1+ 2 i 0.273(3) 0.3144(7) -0.187(2) 0.0406(17) 1 0
H9 H1+ 2 i -0.112(2) 0.404(2) -0.2358(18) 0.0406(17) 1 0
H10 H1+ 2 i -0.020(3) 0.334(2) -0.2412(17) 0.0406(17) 1 0
H11 H1+ 2 i -0.238(2) 0.0307(16) 0.391(2) 0.0406(17) 1 0
H12 H1+ 2 i -0.241(2) -0.0771(13) 0.423(3) 0.0406(17) 1 0
H13 H1+ 2 i 0.8521(17) 0.131(2) 0.191(2) 0.0406(17) 1 0
H14 H1+ 2 i 0.785(3) 0.2171(14) 0.201(2) 0.0406(17) 1 0
H15 H1+ 2 i -0.202(3) -0.148(2) 0.1070(11) 0.0406(17) 1 0
H16 H1+ 2 i -0.279(2) -0.118(2) 0.170(2) 0.0406(17) 1 0
H17 H1+ 2 i 0.287(2) -0.0058(9) 0.351(2) 0.0406(17) 1 0
H18 H1+ 2 i 0.287(2) -0.1167(16) 0.373(2) 0.0406(17) 1 0
H19 H1+ 2 i 0.0900(17) -0.291(2) 0.460(2) 0.0406(17) 1 0
H20 H1+ 2 i -0.0612(19) -0.304(2) 0.431(2) 0.0406(17) 1 0
H21 H1+ 2 i 0.824(3) 0.085(2) -0.1616(8) 0.0406(17) 1 0
H22 H1+ 2 i 0.9284(10) 0.109(2) -0.0442(18) 0.0406(17) 1 0
H23 H1+ 2 i 0.410(3) -0.0259(12) -0.128(3) 0.0406(17) 1 0
H24 H1+ 2 i 0.519(3) 0.015(2) -0.166(2) 0.0406(17) 1 0
H25 H1+ 2 i 0.804(3) -0.1880(16) -0.1037(13) 0.0406(17) 1 0
H26 H1+ 2 i 0.827(3) -0.0763(10) -0.061(2) 0.0406(17) 1 0
loop_
_atom_site_aniso_label
_atom_site_aniso_type_symbol
_atom_site_aniso_U_11
_atom_site_aniso_U_22
_atom_site_aniso_U_33
_atom_site_aniso_U_12
_atom_site_aniso_U_13
_atom_site_aniso_U_23
V1 V5+ 0.00643(14) 0.00731(14) 0.00662(14) 0.00154(11) 0.00308(11) 0.00185(11)
V2 V5+ 0.00903(14) 0.00742(14) 0.00493(14) 0.00141(11) 0.00236(11) 0.00133(10)
V3 V5+ 0.00797(14) 0.00698(14) 0.00611(14) 0.00169(11) 0.00257(11) 0.00235(10)
V4 V5+ 0.00671(14) 0.00731(14) 0.00883(15) 0.00045(11) 0.00281(11) 0.00129(11)
V5 V5+ 0.00842(14) 0.00770(14) 0.00935(15) 0.00218(11) 0.00441(12) 0.00113(11)
Na1 Na1+ 0.0139(4) 0.0171(4) 0.0115(4) 0.0026(3) 0.0042(3) 0.0041(3)
Na2 Na1+ 0.0119(4) 0.0134(3) 0.0121(4) 0.0025(3) 0.0049(3) 0.0001(3)
Na3 Na1+ 0.0108(3) 0.0148(3) 0.0101(4) 0.0029(3) 0.0044(3) 0.0030(3)
O1 O2- 0.0128(6) 0.0117(6) 0.0076(6) 0.0016(5) 0.0031(5) 0.0019(5)
O2 O2- 0.0140(6) 0.0114(6) 0.0107(6) 0.0031(5) 0.0055(5) 0.0040(5)
O3 O2- 0.0094(6) 0.0107(6) 0.0129(6) 0.0007(5) 0.0032(5) 0.0025(5)
O4 O2- 0.0078(6) 0.0085(6) 0.0068(6) 0.0017(5) 0.0041(5) 0.0017(4)
O5 O2- 0.0076(6) 0.0093(6) 0.0063(6) 0.0020(5) 0.0026(5) 0.0022(4)
O6 O2- 0.0081(6) 0.0089(6) 0.0095(6) 0.0004(5) 0.0037(5) 0.0028(5)
O7 O2- 0.0101(6) 0.0080(6) 0.0096(6) 0.0026(5) 0.0046(5) 0.0023(5)
O8 O2- 0.0107(6) 0.0101(6) 0.0078(6) 0.0022(5) 0.0051(5) 0.0013(5)
O9 O2- 0.0088(6) 0.0087(6) 0.0083(6) 0.0010(5) 0.0026(5) 0.0013(5)
O10 O2- 0.0072(6) 0.0107(6) 0.0095(6) 0.0014(5) 0.0034(5) 0.0019(5)
O11 O2- 0.0105(6) 0.0080(6) 0.0093(6) 0.0015(5) 0.0040(5) 0.0013(5)
O12 O2- 0.0078(6) 0.0081(5) 0.0066(6) 0.0017(5) 0.0038(5) 0.0023(4)
O13 O2- 0.0084(6) 0.0117(6) 0.0085(6) 0.0030(5) 0.0043(5) 0.0027(5)
O14 O2- 0.0154(7) 0.0131(6) 0.0150(7) 0.0057(5) 0.0085(5) 0.0029(5)
O15 O2- 0.0127(6) 0.0182(7) 0.0114(7) 0.0040(5) 0.0053(5) 0.0026(5)
O16 O2- 0.0102(6) 0.0210(7) 0.0104(6) 0.0048(5) 0.0045(5) 0.0038(5)
O17 O2- 0.0118(6) 0.0279(8) 0.0114(7) 0.0073(6) 0.0057(5) 0.0055(6)
O18 O2- 0.0137(7) 0.0141(6) 0.0124(7) 0.0023(5) 0.0073(5) 0.0025(5)
O19 O2- 0.0105(6) 0.0175(7) 0.0132(7) 0.0040(5) 0.0040(5) 0.0021(5)
O20 O2- 0.0114(6) 0.0105(6) 0.0141(7) 0.0019(5) 0.0060(5) 0.0039(5)
O21 O2- 0.0152(7) 0.0238(7) 0.0142(7) 0.0064(6) 0.0049(6) 0.0050(6)
O22 O2- 0.0181(7) 0.0187(7) 0.0145(7) 0.0034(6) 0.0046(6) 0.0019(6)
O23 O2- 0.0132(6) 0.0101(6) 0.0160(7) 0.0040(5) 0.0060(5) 0.0039(5)
O24 O2- 0.0136(7) 0.0182(7) 0.0166(7) 0.0032(5) 0.0056(6) 0.0052(5)
O25 O2- 0.0362(9) 0.0216(7) 0.0160(7) 0.0114(7) 0.0117(7) 0.0039(6)
O26 O2- 0.0223(8) 0.0300(9) 0.0292(9) -0.0075(7) 0.0096(7) -0.0008(7)
O27 O2- 0.0489(10) 0.0138(7) 0.0126(7) -0.0018(7) 0.0074(7) -0.0008(6)
#End of TTdata_260731-ICSD