
#(C) 2019 by FIZ Karlsruhe - Leibniz Institute for Information Infrastructure.  All rights reserved.
data_260825-ICSD
_database_code_ICSD 260825
_audit_creation_date 2011-02-01
_chemical_name_systematic 'Sodium samarium tetrakis(polyphosphate)'
_chemical_formula_structural 'Na Sm (P O3)4'
_chemical_formula_sum 'Na1 O12 P4 Sm1'
_chemical_name_structure_type KCe(PO3)4
_exptl_crystal_density_diffrn 3.5
_cell_measurement_temperature 293.
_publ_section_title 'Sodium samarium tetrakis(polyphosphate), Na Sm (P O3)4'
loop_
_citation_id
_citation_journal_full
_citation_year
_citation_journal_volume
_citation_page_first
_citation_page_last
_citation_journal_id_ASTM
primary 'Acta Crystallographica, Section E: Structure Reports Online' 2010 66
i53 i53 ACSEBH
loop_
_publ_author_name
'Zhao Dan'
'Zhang Lina'
'Li Feifei'
_cell_length_a 7.1924(13)
_cell_length_b 13.091(2)
_cell_length_c 9.8480(17)
_cell_angle_alpha 90.
_cell_angle_beta 90.396(10)
_cell_angle_gamma 90.
_cell_volume 927.22
_cell_formula_units_Z 4
_symmetry_space_group_name_H-M 'P 1 21/n 1'
_symmetry_Int_Tables_number 14
_refine_ls_R_factor_all 0.0365
loop_
_symmetry_equiv_pos_site_id
_symmetry_equiv_pos_as_xyz
1 '-x+1/2, y+1/2, -z+1/2'
2 '-x, -y, -z'
3 'x+1/2, -y+1/2, z+1/2'
4 'x, y, z'
loop_
_atom_type_symbol
_atom_type_oxidation_number
Na1+ 1
Sm3+ 3
P5+ 5
O2- -2
loop_
_atom_site_label
_atom_site_type_symbol
_atom_site_symmetry_multiplicity
_atom_site_Wyckoff_symbol
_atom_site_fract_x
_atom_site_fract_y
_atom_site_fract_z
_atom_site_B_iso_or_equiv
_atom_site_occupancy
_atom_site_attached_hydrogens
Na1 Na1+ 4 e -0.0002(4) 0.7220(2) 0.5648(3) 0.0210(6) 1 0
Sm1 Sm3+ 4 e 0.51300(4) 0.71807(2) 0.47634(3) 0.00716(10) 1 0
P1 P5+ 4 e 0.2493(2) 0.60065(11) 0.74392(15) 0.0064(3) 1 0
P2 P5+ 4 e 0.8781(2) 0.61480(12) 0.26404(15) 0.0063(3) 1 0
P3 P5+ 4 e 0.2690(2) 0.59026(12) 0.19783(15) 0.0065(3) 1 0
P4 P5+ 4 e 0.6463(2) 0.62775(12) 0.80511(15) 0.0065(3) 1 0
O1 O2- 4 e 0.2374(6) 0.6610(3) 0.0824(4) 0.0117(9) 1 0
O2 O2- 4 e 0.7180(5) 0.7105(3) 0.8947(4) 0.0099(9) 1 0
O3 O2- 4 e 0.2829(6) 0.4784(3) 0.1343(4) 0.0091(9) 1 0
O4 O2- 4 e 0.8029(6) 0.6454(3) 0.3976(4) 0.0095(9) 1 0
O5 O2- 4 e 0.0936(6) 0.6652(3) 0.7951(4) 0.0103(9) 1 0
O6 O2- 4 e 0.0886(6) 0.5804(3) 0.2895(4) 0.0105(9) 1 0
O7 O2- 4 e 0.2159(6) 0.4860(3) 0.7898(4) 0.0098(9) 1 0
O8 O2- 4 e 0.6799(6) 0.6328(3) 0.6572(4) 0.0100(9) 1 0
O9 O2- 4 e 0.8672(6) 0.6896(3) 0.1519(4) 0.0105(9) 1 0
O10 O2- 4 e 0.2860(6) 0.6073(3) 0.5963(4) 0.0102(9) 1 0
O11 O2- 4 e 0.4284(6) 0.6243(3) 0.8331(4) 0.0082(9) 1 0
O12 O2- 4 e 0.4293(6) 0.6102(3) 0.2901(4) 0.0135(9) 1 0
loop_
_atom_site_aniso_label
_atom_site_aniso_type_symbol
_atom_site_aniso_U_11
_atom_site_aniso_U_22
_atom_site_aniso_U_33
_atom_site_aniso_U_12
_atom_site_aniso_U_13
_atom_site_aniso_U_23
Na1 Na1+ 0.0172(14) 0.0309(16) 0.0149(12) 0.0063(13) -0.0028(11) 0.0029(12)
Sm1 Sm3+ 0.00640(16) 0.00857(15) 0.00651(15) -0.00002(13) 0.00033(11)
-0.00033(13)
P1 P5+ 0.0049(7) 0.0065(7) 0.0078(7) -0.0001(6) -0.0001(6) -0.0006(6)
P2 P5+ 0.0055(7) 0.0053(7) 0.0082(7) 0.0002(6) 0.0012(6) 0.0002(6)
P3 P5+ 0.0046(7) 0.0064(7) 0.0084(7) 0.0013(6) 0.0000(6) -0.0001(6)
P4 P5+ 0.0053(7) 0.0059(7) 0.0084(7) -0.0007(6) 0.0001(6) -0.0007(6)
O1 O2- 0.010(2) 0.013(2) 0.012(2) 0.0027(18) 0.0012(18) 0.0029(18)
O2 O2- 0.005(2) 0.009(2) 0.016(2) -0.0013(17) -0.0032(17) -0.0044(18)
O3 O2- 0.014(2) 0.005(2) 0.009(2) 0.0016(17) -0.0019(17) -0.0014(17)
O4 O2- 0.007(2) 0.012(2) 0.009(2) 0.0009(17) 0.0012(17) -0.0007(17)
O5 O2- 0.005(2) 0.013(2) 0.013(2) 0.0014(17) 0.0020(17) -0.0007(18)
O6 O2- 0.008(2) 0.015(2) 0.008(2) -0.0019(18) 0.0034(17) 0.0022(18)
O7 O2- 0.014(2) 0.005(2) 0.011(2) -0.0042(17) -0.0001(18) -0.0013(16)
O8 O2- 0.010(2) 0.013(2) 0.0064(19) 0.0015(18) 0.0028(17) 0.0026(17)
O9 O2- 0.011(2) 0.008(2) 0.012(2) 0.0023(17) 0.0018(18) 0.0028(17)
O10 O2- 0.012(2) 0.010(2) 0.009(2) -0.0015(18) 0.0019(18) -0.0004(17)
O11 O2- 0.007(2) 0.010(2) 0.0076(19) -0.0012(17) -0.0028(17) -0.0021(16)
O12 O2- 0.008(2) 0.015(2) 0.017(2) -0.0020(18) -0.0044(18) -0.0047(18)
#End of TTdata_260825-ICSD