
#(C) 2019 by FIZ Karlsruhe - Leibniz Institute for Information Infrastructure.  All rights reserved.
data_260973-ICSD
_database_code_ICSD 260973
_audit_creation_date 2011-02-01
_audit_update_record 2013-08-01
_chemical_name_systematic 'Tetrasodium 32-uranyl 32-peroxo 16-diphosphate'
_chemical_formula_structural 'Na4 ((U O2)32 (O2)32 (P2 O7)16)'
_chemical_formula_sum 'Na4 O240 P32 U32'
_exptl_crystal_density_diffrn 1.83
_cell_measurement_temperature 273.
_publ_section_title
'Uranium pyrophosphate/methylenediphosphonate polyoxometalate cage clusters'
loop_
_citation_id
_citation_journal_full
_citation_year
_citation_journal_volume
_citation_page_first
_citation_page_last
_citation_journal_id_ASTM
primary 'Journal of the American Chemical Society' 2010 132 13395 13402 JACSAT
loop_
_publ_author_name
'Ling Jie'
'Qiu Jie'
'Sigmon, G.E.'
'Ward, M.'
'Szymanowski, J.E.S.'
'Burns, P.C.'
_cell_length_a 28.456(3)
_cell_length_b 28.456(3)
_cell_length_c 28.080(7)
_cell_angle_alpha 90.
_cell_angle_beta 90.
_cell_angle_gamma 90.
_cell_volume 22737.61
_cell_formula_units_Z 2
_symmetry_space_group_name_H-M 'I 4 m m'
_symmetry_Int_Tables_number 107
_refine_ls_R_factor_all 0.0279
loop_
_symmetry_equiv_pos_site_id
_symmetry_equiv_pos_as_xyz
1 '-y, x, z'
2 'y, -x, z'
3 '-y, -x, z'
4 'y, x, z'
5 'x, -y, z'
6 '-x, y, z'
7 '-x, -y, z'
8 'x, y, z'
9 '-y+1/2, x+1/2, z+1/2'
10 'y+1/2, -x+1/2, z+1/2'
11 '-y+1/2, -x+1/2, z+1/2'
12 'y+1/2, x+1/2, z+1/2'
13 'x+1/2, -y+1/2, z+1/2'
14 '-x+1/2, y+1/2, z+1/2'
15 '-x+1/2, -y+1/2, z+1/2'
16 'x+1/2, y+1/2, z+1/2'
loop_
_atom_type_symbol
_atom_type_oxidation_number
U6+ 6
P5+ 5
Na1+ 1
O1- -1
O2- -2
O1- -1
O2- -2
O1- -1
O2- -2
O1- -1
O2- -2
O1- -1
O2- -2
O1- -1
O2- -2
O1- -1
loop_
_atom_site_label
_atom_site_type_symbol
_atom_site_symmetry_multiplicity
_atom_site_Wyckoff_symbol
_atom_site_fract_x
_atom_site_fract_y
_atom_site_fract_z
_atom_site_B_iso_or_equiv
_atom_site_occupancy
_atom_site_attached_hydrogens
U1 U6+ 16 e 0.30656(4) 0.20326(4) 0.73458(5) 0.0491(4) 1 0
U2 U6+ 16 e 0.38922(4) 0.28423(4) 0.82647(4) 0.0456(4) 1 0
U3 U6+ 16 e 0.42640(4) 0.26842(4) 0.48182(5) 0.0591(4) 1 0
U4 U6+ 16 e 0.42651(5) 0.15027(5) 0.57230(5) 0.0629(5) 1 0
P1 P5+ 8 c 0.3085(3) 0.3085(3) 0.4691(5) 0.062(5) 1 0
P2 P5+ 8 c 0.3749(3) 0.3749(3) 0.4331(5) 0.054(4) 1 0
P3 P5+ 8 d 0.5 0.3221(4) 0.8685(4) 0.041(4) 1 0
P4 P5+ 8 d 0.5 0.2281(4) 0.8320(5) 0.053(4) 1 0
P5 P5+ 16 e 0.3800(4) 0.1104(3) 0.6836(3) 0.066(3) 1 0
P6 P5+ 16 e 0.3053(4) 0.1408(3) 0.6230(3) 0.060(3) 1 0
Na1 Na1+ 8 c 0.3427(4) 0.3427(4) 0.7054(6) 0.075(6) 1 0
O1 O1- 8 d 0.5 0.2941(10) 0.4458(9) 0.065(10) 1 0
O2 O2- 8 d 0.5 0.1112(13) 0.5974(12) 0.128(14) 1 0
O3 O1- 8 c 0.3182(6) 0.3182(6) 0.8447(7) 0.031(8) 1 0
O4 O2- 8 d 0.5 0.1333(10) 0.5385(10) 0.069(10) 1 0
O5 O2- 16 e 0.3932(6) 0.2601(7) 0.8793(7) 0.057(7) 1 0
O6 O2- 16 e 0.5440(7) 0.3333(7) 0.8407(7) 0.070(7) 1 0
O7 O1- 8 c 0.3582(6) 0.3582(6) 0.8531(8) 0.047(9) 1 0
O8 O1- 8 c 0.2262(6) 0.2262(6) 0.7182(8) 0.028(8) 1 0
O9 O2- 16 e 0.4101(6) 0.3536(7) 0.4578(6) 0.057(7) 1 0
O10 O2- 16 e 0.3759(6) 0.1632(6) 0.7042(6) 0.052(6) 1 0
O11 O1- 16 e 0.4396(7) 0.1913(6) 0.4965(7) 0.074(7) 1 0
O12 O2- 16 e 0.4554(6) 0.2400(6) 0.8029(6) 0.058(7) 1 0
O13 O2- 16 e 0.3911(6) 0.3121(6) 0.7677(6) 0.033(5) 1 0
O14 O2- 16 e 0.4452(6) 0.2888(6) 0.5358(6) 0.041(6) 1 0
O15 O2- 16 e 0.4022(7) 0.1004(7) 0.5355(6) 0.061(7) 1 0
O16 O2- 16 e 0.2820(7) 0.1776(7) 0.6586(7) 0.070(7) 1 0
O17 O2- 8 c 0.2727(7) 0.2727(7) 0.4506(10) 0.073(10) 1 0
O18 O2- 16 e 0.3819(6) 0.0710(6) 0.7187(6) 0.052(6) 1 0
O19 O2- 8 d 0.5 0.2663(8) 0.8776(8) 0.028(7) 1 0
O20 O2- 16 e 0.4084(6) 0.2537(6) 0.4227(6) 0.052(7) 1 0
O21 O2- 8 d 0.5 0.3388(10) 0.9113(10) 0.071(10) 1 0
O22 O2- 16 e 0.3458(6) 0.2818(6) 0.4977(6) 0.058(7) 1 0
O23 O1- 16 e 0.3671(7) 0.2144(7) 0.7912(7) 0.075(7) 1 0
O24 O2- 8 d 0.5 0.1780(9) 0.8549(9) 0.061(9) 1 0
O25 O1- 8 c 0.2380(7) 0.2380(7) 0.7618(11) 0.076(10) 1 0
O26 O1- 16 e 0.3896(7) 0.1969(7) 0.5109(6) 0.061(7) 1 0
O27 O2- 16 e 0.2888(7) 0.1491(7) 0.7612(7) 0.071(7) 1 0
O28 O2- 16 e 0.3397(8) 0.1597(8) 0.5982(7) 0.088(8) 1 0
O29 O2- 16 e 0.4456(7) 0.2044(7) 0.6031(7) 0.075(7) 1 0
O30 O2- 16 e 0.4188(7) 0.1158(7) 0.6517(7) 0.080(7) 1 0
O31 O2- 16 e 0.3262(7) 0.2542(7) 0.7053(7) 0.083(8) 1 0
O32 O2- 16 e 0.3332(8) 0.0998(7) 0.6570(8) 0.087(8) 1 0
O33 O2- 16 e 0.2705(10) 0.1125(10) 0.5947(9) 0.138(11) 1 0
O34 O2- 8 c 0.3354(8) 0.3354(8) 0.4273(11) 0.090(11) 1 0
O35 O2- 8 c 0.3871(9) 0.3871(9) 0.3881(13) 0.130(14) 1 0
O36 O1- 8 d 0.5 0.2431(11) 0.4523(10) 0.090(11) 1 0
O37 O1- 16 e 0.3233(6) 0.2342(6) 0.8078(6) 0.047(6) 1 0
loop_
_atom_site_aniso_label
_atom_site_aniso_type_symbol
_atom_site_aniso_U_11
_atom_site_aniso_U_22
_atom_site_aniso_U_33
_atom_site_aniso_U_12
_atom_site_aniso_U_13
_atom_site_aniso_U_23
U1 U6+ 0.0452(10) 0.0343(10) 0.0676(9) -0.0066(7) 0.0014(9) 0.0066(9)
U2 U6+ 0.0449(10) 0.0417(9) 0.0501(9) -0.0009(7) 0.0036(9) 0.0057(9)
U3 U6+ 0.0555(11) 0.0584(10) 0.0634(10) -0.0037(8) -0.0044(10) -0.0152(10)
U4 U6+ 0.0568(11) 0.0577(11) 0.0741(11) 0.0003(9) -0.0014(10) -0.0135(10)
#End of TTdata_260973-ICSD