
#(C) 2019 by FIZ Karlsruhe - Leibniz Institute for Information Infrastructure.  All rights reserved.
data_261255-ICSD
_database_code_ICSD 261255
_audit_creation_date 2011-08-01
_chemical_name_systematic 'Sodium ruthenate (27/14)'
_chemical_formula_structural 'Na27 Ru14 O48'
_chemical_formula_sum 'Na27 O48 Ru14'
_exptl_crystal_density_diffrn 4.17
_cell_measurement_temperature 296.
_publ_section_title

;
Na27 Ru14 O48: A new mixed-valence sodium ruthenate with magnetic heptameric
plaquettes
;
loop_
_citation_id
_citation_journal_full
_citation_year
_citation_journal_volume
_citation_page_first
_citation_page_last
_citation_journal_id_ASTM
primary 'Journal of Solid State Chemistry' 2011 184 44 51 JSSCBI
loop_
_publ_author_name
'Allred, J.M.'
'Wang, L.M.'
'Khalifah, P.'
'Cava, R.J.'
_cell_length_a 5.7763(4)
_cell_length_b 10.9910(9)
_cell_length_c 18.2042(13)
_cell_angle_alpha 88.517(4)
_cell_angle_beta 87.194(3)
_cell_angle_gamma 75.165(3)
_cell_volume 1115.77
_cell_formula_units_Z 1
_symmetry_space_group_name_H-M 'P -1'
_symmetry_Int_Tables_number 2
_refine_ls_R_factor_all 0.0424
loop_
_symmetry_equiv_pos_site_id
_symmetry_equiv_pos_as_xyz
1 '-x, -y, -z'
2 'x, y, z'
loop_
_atom_type_symbol
_atom_type_oxidation_number
Na1+ 1
O2- -2
Ru5+ 5
Na1+ 1
loop_
_atom_site_label
_atom_site_type_symbol
_atom_site_symmetry_multiplicity
_atom_site_Wyckoff_symbol
_atom_site_fract_x
_atom_site_fract_y
_atom_site_fract_z
_atom_site_B_iso_or_equiv
_atom_site_occupancy
_atom_site_attached_hydrogens
Na1 Na1+ 2 i 0.1270(5) 0.4065(3) 0.15282(16) 0.0191(6) 1 0
Na2 Na1+ 2 i 0.1483(5) 0.3656(3) -0.04561(16) 0.0195(6) 1 0
Na3 Na1+ 2 i 0.2664(5) -0.1996(3) 0.27523(15) 0.0199(6) 1 0
Na4 Na1+ 2 i 0.3950(6) 0.2027(3) 0.24601(18) 0.0277(11) 0.977(13) 0
Na5 Na1+ 2 i -0.4508(6) 0.5089(3) 0.18345(17) 0.0230(10) 0.977(13) 0
Na6 Na1+ 2 i -0.3981(5) -0.0728(3) 0.15720(18) 0.0229(6) 1 0
Na7 Na1+ 2 i 0.1232(5) 0.3149(3) -0.22077(15) 0.0196(6) 1 0
Na8 Na1+ 2 i -0.0316(5) 0.0888(3) 0.33854(16) 0.0200(10) 0.951(12) 0
Na9 Na1+ 2 i -0.6238(5) 0.1408(3) 0.05018(18) 0.0242(6) 1 0
Na10 Na1+ 2 i 0.1931(6) -0.1156(3) 0.49410(19) 0.0332(7) 1 0
Na11 Na1+ 2 i 0.5404(7) -0.0204(3) 0.3527(3) 0.0482(11) 1 0
Na12 Na1+ 2 i 0.4143(6) -0.3739(3) 0.4245(2) 0.0348(8) 1 0
Na13 Na1+ 2 i 0.6681(6) 0.3681(3) 0.3604(2) 0.0277(12) 0.861(13) 0
Na14 Na1+ 1 e 0.5 0.5 0. 0.0455(16) 1 0
O1 O2- 2 i 0.0198(8) -0.1506(4) 0.1743(2) 0.0123(8) 1 0
O2 O2- 2 i -0.4520(8) 0.2885(4) -0.0057(2) 0.0111(8) 1 0
O3 O2- 2 i 0.1260(8) -0.3609(4) 0.3293(2) 0.0139(9) 1 0
O4 O2- 2 i -0.2191(7) 0.0679(4) 0.0839(2) 0.0085(8) 1 0
O5 O2- 2 i 0.0471(8) 0.2014(4) 0.1429(2) 0.0127(8) 1 0
O6 O2- 2 i 0.5628(9) 0.1792(5) 0.3873(3) 0.0228(11) 1 0
O7 O2- 2 i 0.0149(7) 0.1813(4) -0.0172(2) 0.0091(8) 1 0
O8 O2- 2 i 0.5846(9) -0.2120(5) 0.4660(3) 0.0210(10) 1 0
O9 O2- 2 i -0.1517(8) 0.4189(4) 0.0625(2) 0.0145(9) 1 0
O10 O2- 2 i -0.2587(7) 0.0447(4) -0.0764(2) 0.0091(8) 1 0
O11 O2- 2 i -0.5243(8) 0.2705(4) -0.1530(2) 0.0160(9) 1 0
O12 O2- 2 i 0.0771(8) 0.2871(4) 0.3508(2) 0.0150(9) 1 0
O13 O2- 2 i 0.0371(9) -0.3248(4) 0.4916(2) 0.0174(9) 1 0
O14 O2- 2 i 0.2825(8) -0.5726(4) 0.4312(2) 0.0149(9) 1 0
O15 O2- 2 i 0.2671(8) 0.0110(4) 0.2374(2) 0.0142(9) 1 0
O16 O2- 2 i 0.8224(8) -0.4599(4) 0.4101(2) 0.0142(9) 1 0
O17 O2- 2 i -0.1843(8) 0.3893(4) -0.1163(3) 0.0152(9) 1 0
O18 O2- 2 i 0.1910(10) 0.0805(4) 0.4401(3) 0.0200(10) 1 0
O19 O2- 2 i -0.2263(8) 0.0667(4) 0.2361(2) 0.0151(9) 1 0
O20 O2- 2 i -0.1187(10) 0.4831(5) 0.2573(3) 0.0216(11) 1 0
O21 O2- 2 i 0.6327(9) -0.2351(5) 0.3223(3) 0.0252(11) 1 0
O22 O2- 2 i -0.4672(9) 0.3050(4) 0.1394(3) 0.0182(10) 1 0
O23 O2- 2 i 0.3720(10) 0.4140(5) 0.2736(3) 0.0230(11) 1 0
O24 O2- 2 i -0.0462(9) -0.1228(4) 0.3861(3) 0.0191(10) 1 0
Ru1 Ru5+ 1 a 0. 0. 0. 0.00702(13) 1 0
Ru2 Ru5+ 1 g 0. -0.5 0.5 0.01183(15) 0.9483(8) 0
Ru3 Ru5+ 2 i -0.14638(9) -0.26813(5) 0.39345(3) 0.01029(11) 0.9483(8) 0
Ru4 Ru5+ 2 i 0.09865(9) 0.46267(5) 0.32944(3) 0.00927(11) 0.9483(8) 0
Ru5 Ru5+ 2 i 0.27277(10) 0.23148(5) 0.43750(3) 0.01098(12) 0.9483(8) 0
Ru6 Ru5+ 2 i -0.120(2) -0.4884(10) 0.4969(6) 0.01183(15) 0.0517(8) 0
Ru7 Ru5+ 2 i -0.3413(17) -0.2535(8) 0.4017(5) 0.01029(11) 0.0517(8) 0
Ru8 Ru5+ 2 i -0.1232(17) 0.4830(8) 0.3280(5) 0.00927(11) 0.0517(8) 0
Ru9 Ru5+ 2 i 0.1207(18) 0.2478(8) 0.4255(5) 0.01098(12) 0.0517(8) 0
Ru10 Ru5+ 2 i -0.25365(9) 0.23603(4) -0.09699(3) 0.00818(11) 0.9829(8) 0
Ru11 Ru5+ 2 i 0.02618(9) 0.02984(4) 0.17102(3) 0.00806(11) 0.9829(8) 0
Ru12 Ru5+ 2 i -0.21674(8) 0.26220(4) 0.07410(3) 0.00792(11) 0.9829(8) 0
Ru13 Ru5+ 2 i -0.029(5) 0.211(2) -0.1051(14) 0.00818(11) 0.0171(8) 0
Ru14 Ru5+ 2 i -0.174(5) 0.053(2) 0.1660(14) 0.00806(11) 0.0171(8) 0
Ru15 Ru5+ 2 i -0.392(5) 0.288(2) 0.0649(14) 0.00792(11) 0.0171(8) 0
Na15 Na1+ 2 i 0.763(5) 0.289(2) 0.2579(14) 0.015(8) 0.102(12) 0
loop_
_atom_site_aniso_label
_atom_site_aniso_type_symbol
_atom_site_aniso_U_11
_atom_site_aniso_U_22
_atom_site_aniso_U_33
_atom_site_aniso_U_12
_atom_site_aniso_U_13
_atom_site_aniso_U_23
Na1 Na1+ 0.0185(14) 0.0180(13) 0.0213(13) -0.0052(11) -0.0017(11) -0.0028(10)
Na2 Na1+ 0.0156(13) 0.0164(13) 0.0271(14) -0.0051(10) -0.0050(11) 0.0053(11)
Na3 Na1+ 0.0214(14) 0.0187(14) 0.0222(13) -0.0093(11) -0.0085(11) 0.0081(11)
Na4 Na1+ 0.034(2) 0.0141(16) 0.0319(19) -0.0028(13) 0.0083(14) -0.0023(12)
Na5 Na1+ 0.0256(18) 0.0203(16) 0.0263(17) -0.0120(12) -0.0026(13) 0.0040(12)
Na6 Na1+ 0.0165(14) 0.0188(14) 0.0350(16) -0.0079(11) 0.0005(12) 0.0009(12)
Na7 Na1+ 0.0233(15) 0.0169(13) 0.0193(13) -0.0058(11) -0.0059(11) 0.0035(10)
Na8 Na1+ 0.0164(16) 0.0259(18) 0.0182(15) -0.0061(12) 0.0014(11) -0.0067(11)
Na9 Na1+ 0.0151(13) 0.0219(15) 0.0380(17) -0.0095(11) -0.0067(12) 0.0130(12)
Na10 Na1+ 0.0304(18) 0.0288(17) 0.0378(18) -0.0030(14) -0.0029(15) 0.0063(14)
Na11 Na1+ 0.0315(19) 0.0179(16) 0.095(3) -0.0025(14) -0.019(2) -0.0114(19)
Na12 Na1+ 0.0228(16) 0.0288(18) 0.053(2) -0.0069(13) 0.0035(16) -0.0113(15)
Na13 Na1+ 0.0147(18) 0.0173(18) 0.051(3) -0.0045(13) -0.0011(16) -0.0019(15)
Na14 Na1+ 0.039(3) 0.0044(18) 0.094(4) 0.0004(17) -0.049(3) -0.001(2)
O1 O2- 0.015(2) 0.012(2) 0.0099(19) -0.0044(17) 0.0009(17) 0.0008(15)
O2 O2- 0.011(2) 0.0086(19) 0.0130(19) -0.0008(15) -0.0006(17) -0.0002(15)
O3 O2- 0.018(2) 0.011(2) 0.0118(19) -0.0033(17) 0.0033(17) 0.0019(16)
O4 O2- 0.0063(18) 0.0082(19) 0.0103(18) -0.0012(14) 0.0011(15) 0.0029(14)
O5 O2- 0.013(2) 0.012(2) 0.0135(19) -0.0026(16) -0.0026(17) 0.0027(16)
O6 O2- 0.014(2) 0.014(2) 0.040(3) -0.0025(18) 0.003(2) -0.001(2)
O7 O2- 0.010(2) 0.0080(19) 0.0098(18) -0.0033(15) 0.0000(16) 0.0002(15)
O8 O2- 0.022(3) 0.017(2) 0.025(2) -0.008(2) -0.002(2) -0.0014(19)
O9 O2- 0.018(2) 0.0079(19) 0.019(2) -0.0048(17) -0.0040(18) 0.0042(16)
O10 O2- 0.0074(19) 0.0100(19) 0.0095(18) -0.0015(15) -0.0012(15) 0.0021(15)
O11 O2- 0.016(2) 0.015(2) 0.017(2) -0.0027(17) -0.0060(18) 0.0035(17)
O12 O2- 0.020(2) 0.009(2) 0.016(2) -0.0037(17) -0.0041(18) 0.0011(16)
O13 O2- 0.028(3) 0.011(2) 0.014(2) -0.0067(19) -0.0004(19) -0.0002(17)
O14 O2- 0.017(2) 0.010(2) 0.018(2) -0.0020(17) -0.0041(18) 0.0017(16)
O15 O2- 0.012(2) 0.017(2) 0.014(2) -0.0037(17) -0.0031(17) 0.0022(17)
O16 O2- 0.015(2) 0.015(2) 0.013(2) -0.0049(17) 0.0050(18) -0.0011(16)
O17 O2- 0.017(2) 0.011(2) 0.019(2) -0.0060(17) -0.0024(19) 0.0032(17)
O18 O2- 0.033(3) 0.011(2) 0.019(2) -0.010(2) -0.005(2) 0.0005(18)
O19 O2- 0.012(2) 0.015(2) 0.016(2) 0.0012(17) -0.0009(18) -0.0018(17)
O20 O2- 0.033(3) 0.016(2) 0.017(2) -0.006(2) -0.012(2) 0.0007(18)
O21 O2- 0.020(3) 0.022(3) 0.033(3) -0.001(2) -0.013(2) -0.003(2)
O22 O2- 0.020(2) 0.016(2) 0.016(2) -0.0003(18) 0.0055(19) -0.0048(18)
O23 O2- 0.030(3) 0.016(2) 0.020(2) -0.004(2) 0.013(2) -0.0048(19)
O24 O2- 0.026(3) 0.011(2) 0.021(2) -0.0059(19) -0.002(2) 0.0016(18)
Ru1 Ru5+ 0.0080(3) 0.0059(3) 0.0070(3) -0.0017(2) 0.0007(2) -0.0001(2)
Ru2 Ru5+ 0.0191(5) 0.0078(3) 0.0089(3) -0.0042(3) -0.0002(3) 0.0000(2)
Ru3 Ru5+ 0.0102(2) 0.0084(2) 0.0121(2) -0.00198(17) 0.00032(18) -0.00151(17)
Ru4 Ru5+ 0.0124(2) 0.0069(2) 0.0079(2) -0.00161(17) 0.00067(18) -0.00056(16)
Ru5 Ru5+ 0.0140(3) 0.0068(2) 0.0124(2) -0.00268(18) -0.00246(19) -0.00029(17)
Ru6 Ru5+ 0.0191(5) 0.0078(3) 0.0089(3) -0.0042(3) -0.0002(3) 0.0000(2)
Ru7 Ru5+ 0.0102(2) 0.0084(2) 0.0121(2) -0.00198(17) 0.00032(18) -0.00151(17)
Ru8 Ru5+ 0.0124(2) 0.0069(2) 0.0079(2) -0.00161(17) 0.00067(18) -0.00056(16)
Ru9 Ru5+ 0.0140(3) 0.0068(2) 0.0124(2) -0.00268(18) -0.00246(19) -0.00029(17)
Ru10 Ru5+ 0.0101(2) 0.0061(2) 0.0084(2) -0.00224(16) -0.00057(17) 0.00020(15)
Ru11 Ru5+ 0.0091(2) 0.0070(2) 0.0080(2) -0.00180(16) 0.00019(17) -0.00027(15)
Ru12 Ru5+ 0.0087(2) 0.0059(2) 0.0089(2) -0.00153(16) 0.00042(17) -0.00062(15)
Ru13 Ru5+ 0.0101(2) 0.0061(2) 0.0084(2) -0.00224(16) -0.00057(17) 0.00020(15)
Ru14 Ru5+ 0.0091(2) 0.0070(2) 0.0080(2) -0.00180(16) 0.00019(17) -0.00027(15)
Ru15 Ru5+ 0.0087(2) 0.0059(2) 0.0089(2) -0.00153(16) 0.00042(17) -0.00062(15)
#End of TTdata_261255-ICSD