
#(C) 2019 by FIZ Karlsruhe - Leibniz Institute for Information Infrastructure.  All rights reserved.
data_261472-ICSD
_database_code_ICSD 261472
_audit_creation_date 2011-08-01
_chemical_name_systematic 'Sodium lead pentaborate'
_chemical_formula_structural 'Na Pb (B5 O9)'
_chemical_formula_sum 'B5 Na1 O9 Pb1'
_exptl_crystal_density_diffrn 4.03
_publ_section_title

;
Synthesis, crystal structure and optical properties of a novel sodium lead
pentaborate, Na Pb B5 O9
;
loop_
_citation_id
_citation_journal_full
_citation_year
_citation_journal_volume
_citation_page_first
_citation_page_last
_citation_journal_id_ASTM
primary 'Journal of Solid State Chemistry' 2011 184 825 829 JSSCBI
loop_
_publ_author_name
'Zhang Min'
'Pan Shilie'
'Han Jian'
'Zhou Zhongxiang'
_cell_length_a 6.5324(10)
_cell_length_b 13.0234(2)
_cell_length_c 8.5838(10)
_cell_angle_alpha 90
_cell_angle_beta 104.971(10)
_cell_angle_gamma 90
_cell_volume 705.47
_cell_formula_units_Z 4
_symmetry_space_group_name_H-M 'P 1 21/c 1'
_symmetry_Int_Tables_number 14
_refine_ls_R_factor_all 0.0178
loop_
_symmetry_equiv_pos_site_id
_symmetry_equiv_pos_as_xyz
1 'x, -y+1/2, z+1/2'
2 '-x, -y, -z'
3 '-x, y+1/2, -z+1/2'
4 'x, y, z'
loop_
_atom_type_symbol
_atom_type_oxidation_number
Na1+ 1
Pb2+ 2
B3+ 3
O2- -2
loop_
_atom_site_label
_atom_site_type_symbol
_atom_site_symmetry_multiplicity
_atom_site_Wyckoff_symbol
_atom_site_fract_x
_atom_site_fract_y
_atom_site_fract_z
_atom_site_B_iso_or_equiv
_atom_site_occupancy
_atom_site_attached_hydrogens
Na1 Na1+ 4 e 0.5340(3) 0.4116(1) 0.8680(2) 0.019(1) 1. 0
Pb1 Pb2+ 4 e 0.0908(1) 0.2884(1) 0.5577(1) 0.013(1) 1. 0
B1 B3+ 4 e -0.4171(7) 0.2537(4) 0.6212(6) 0.010(1) 1. 0
B2 B3+ 4 e 0.0872(7) 0.0634(4) 0.3681(6) 0.012(1) 1. 0
B3 B3+ 4 e -0.1637(7) 0.3882(3) 0.2285(6) 0.010(1) 1. 0
B4 B3+ 4 e 0.4525(7) 0.6508(3) 0.6436(6) 0.008(1) 1. 0
B5 B3+ 4 e 0.7912(7) 0.5515(4) 0.7503(6) 0.011(1) 1. 0
O1 O2- 4 e 0.4912(4) 0.2431(2) 0.7470(4) 0.011(1) 1. 0
O2 O2- 4 e 0.1630(5) 0.1536(2) 0.4290(4) 0.018(1) 1. 0
O3 O2- 4 e -0.2298(4) 0.3726(2) 0.3751(4) 0.009(1) 1. 0
O4 O2- 4 e 0.5804(4) 0.5629(2) 0.7174(4) 0.011(1) 1. 0
O5 O2- 4 e -0.2521(5) 0.1919(2) 0.6052(4) 0.012(1) 1. 0
O6 O2- 4 e 0.9280(4) 0.6254(2) 0.7260(4) 0.010(1) 1. 0
O7 O2- 4 e 0.7742(4) 0.4881(2) 0.1530(4) 0.013(1) 1. 0
O8 O2- 4 e 0.8697(4) 0.4572(2) 0.8176(4) 0.014(1) 1. 0
O9 O2- 4 e -0.5021(4) 0.3268(2) 0.5101(4) 0.010(1) 1. 0
#End of TTdata_261472-ICSD