
#(C) 2019 by FIZ Karlsruhe - Leibniz Institute for Information Infrastructure.  All rights reserved.
data_261421-ICSD
_database_code_ICSD 261421
_audit_creation_date 2011-08-01
_chemical_name_systematic 'Cobalt lithium sodium oxide (1/0.42/0.38/2)'
_chemical_formula_structural 'Co Li0.42 Na0.38 O2'
_chemical_formula_sum 'Co1 Li0.42 Na0.38 O2'
_exptl_crystal_density_diffrn 4.84
_publ_section_title

;
Reinvestigation of the OP4 - (Li/Na) Co O2 - layered system and first evidence
of the (Li/Na/Na) Co O2 phase with OPP9 oxygen stacking
;
loop_
_citation_id
_citation_journal_full
_citation_year
_citation_journal_volume
_citation_page_first
_citation_page_last
_citation_journal_id_ASTM
primary 'Inorganic Chemistry' 2011 50 2420 2430 INOCAJ
loop_
_publ_author_name
'Berthelot, R.'
'Pollet, M.'
'Carlier, D.'
'Delmas, C.'
_cell_length_a 2.8301(2)
_cell_length_b 2.8301(2)
_cell_length_c 20.286(2)
_cell_angle_alpha 90.
_cell_angle_beta 90.
_cell_angle_gamma 120.
_cell_volume 140.71
_cell_formula_units_Z 4
_symmetry_space_group_name_H-M 'P 63/m m c'
_symmetry_Int_Tables_number 194
_refine_ls_R_factor_all 0.0249
loop_
_symmetry_equiv_pos_site_id
_symmetry_equiv_pos_as_xyz
1 'x, x-y, -z+1/2'
2 '-x+y, y, -z+1/2'
3 '-y, -x, -z+1/2'
4 '-x+y, -x, -z+1/2'
5 '-y, x-y, -z+1/2'
6 'x, y, -z+1/2'
7 '-x, -x+y, z+1/2'
8 'x-y, -y, z+1/2'
9 'y, x, z+1/2'
10 'x-y, x, z+1/2'
11 'y, -x+y, z+1/2'
12 '-x, -y, z+1/2'
13 '-x, -x+y, -z'
14 'x-y, -y, -z'
15 'y, x, -z'
16 'x-y, x, -z'
17 'y, -x+y, -z'
18 '-x, -y, -z'
19 'x, x-y, z'
20 '-x+y, y, z'
21 '-y, -x, z'
22 '-x+y, -x, z'
23 '-y, x-y, z'
24 'x, y, z'
loop_
_atom_type_symbol
_atom_type_oxidation_number
Co3+ 3
Na1+ 1
Li1+ 1
O2- -2
loop_
_atom_site_label
_atom_site_type_symbol
_atom_site_symmetry_multiplicity
_atom_site_Wyckoff_symbol
_atom_site_fract_x
_atom_site_fract_y
_atom_site_fract_z
_atom_site_B_iso_or_equiv
_atom_site_occupancy
_atom_site_attached_hydrogens
Co1 Co3+ 4 f 0.6667 0.3333 0.3838(0) 0.10(1) 1. 0
Na1 Na1+ 2 d 0.6667 0.3333 0.25 0.10(1) 0.240(0) 0
Na2 Na1+ 2 c 0.3333 0.6667 0.25 1.04(1) 0.516(0) 0
Li1 Li1+ 2 a 0 0 0.5 0.2 0.84 0
O1 O2- 4 f 0.3333 0.6667 0.4335(1) 0.15(1) 1. 0
O2 O2- 4 e 0 0 0.3395(1) 0.10(1) 1. 0
#End of TTdata_261421-ICSD