
#(C) 2019 by FIZ Karlsruhe - Leibniz Institute for Information Infrastructure.  All rights reserved.
data_261595-ICSD
_database_code_ICSD 261595
_audit_creation_date 2011-08-01
_chemical_name_systematic
'Tetrasodium dimanganese(III) hexafluorodiphosphate(V)'
_chemical_formula_structural 'Na4 Mn2 F6 (P2 O7)'
_chemical_formula_sum 'F6 Mn2 Na4 O7 P2'
_exptl_crystal_density_diffrn 3.21
_cell_measurement_temperature 293.
_publ_section_title

;
Fluoride-rich, hydrofluorothermal routes to functional transition metal (Mn,
Fe, Co, Cu) fluorophosphates
;
loop_
_citation_id
_citation_journal_full
_citation_year
_citation_journal_volume
_citation_page_first
_citation_page_last
_citation_journal_id_ASTM
primary 'Journal of the American Chemical Society' 2011 133 8252 8263 JACSAT
loop_
_publ_author_name
'Armstrong, J.A.'
'Williams, E.R.'
'Weller, M.T.'
_cell_length_a 7.7805(8)
_cell_length_b 8.0834(10)
_cell_length_c 8.1265(7)
_cell_angle_alpha 90
_cell_angle_beta 97.343(7)
_cell_angle_gamma 90
_cell_volume 506.91
_cell_formula_units_Z 2
_symmetry_space_group_name_H-M 'P 1 2/n 1'
_symmetry_Int_Tables_number 13
_refine_ls_R_factor_all 0.0641
loop_
_symmetry_equiv_pos_site_id
_symmetry_equiv_pos_as_xyz
1 'x+1/2, -y, z+1/2'
2 '-x+1/2, y, -z+1/2'
3 '-x, -y, -z'
4 'x, y, z'
loop_
_atom_type_symbol
_atom_type_oxidation_number
O2- -2
Mn3+ 3
P5+ 5
Na1+ 1
O2- -2
F1- -1
O2- -2
Na1+ 1
loop_
_atom_site_label
_atom_site_type_symbol
_atom_site_symmetry_multiplicity
_atom_site_Wyckoff_symbol
_atom_site_fract_x
_atom_site_fract_y
_atom_site_fract_z
_atom_site_B_iso_or_equiv
_atom_site_occupancy
_atom_site_attached_hydrogens
O1 O2- 4 g 0.9742(13) 0.9232(13) 0.2552(12) 0.014(2) 1 0
O2 O2- 4 g 1.0966(13) 0.7468(13) 0.5018(13) 0.015(2) 1 0
Mn1 Mn3+ 2 b 1 0.5 0.5 0.0105(7) 1 0
Mn2 Mn3+ 2 a 1 1 0 0.0108(7) 1 0
P1 P5+ 4 g 1.1332(5) 0.8623(5) 0.3675(5) 0.0112(8) 1 0
Na1 Na1+ 2 e 0.75 0.7485(11) -0.25 0.016(2) 1 0
Na2 Na1+ 2 f 0.75 0.7253(12) 0.25 0.019(2) 1 0
Na3 Na1+ 2 c 1 0.5 0 0.0138(17) 1 0
O3 O2- 2 e 1.25 0.7580(18) 0.25 0.008(3) 1 0
F1 F1- 4 g 0.9499(10) 0.5052(12) 0.2722(10) 0.0162(18) 1 0
F2 F1- 4 g 1.0117(11) 0.7850(10) -0.0771(11) 0.015(2) 1 0
F3 F1- 4 g 0.7817(10) 0.5884(10) 0.5209(10) 0.0137(19) 1 0
O4 O2- 4 g 1.2457(12) 1.0074(14) 0.0623(12) 0.015(2) 1 0
Na4 Na1+ 2 f 0.75 1.1852(16) 0.25 0.034(3) 1 0
loop_
_atom_site_aniso_label
_atom_site_aniso_type_symbol
_atom_site_aniso_U_11
_atom_site_aniso_U_22
_atom_site_aniso_U_33
_atom_site_aniso_U_12
_atom_site_aniso_U_13
_atom_site_aniso_U_23
O1 O2- 0.015(5) 0.017(6) 0.010(5) -0.004(5) 0.000(4) -0.001(4)
O2 O2- 0.020(6) 0.010(5) 0.016(6) -0.005(5) 0.007(5) -0.006(4)
Mn1 Mn3+ 0.0100(15) 0.0138(16) 0.0079(15) 0.0010(15) 0.0017(11) 0.0004(15)
Mn2 Mn3+ 0.0094(15) 0.0089(15) 0.0136(16) -0.0005(14) -0.0006(12) -0.0014(15)
P1 P5+ 0.0105(18) 0.012(2) 0.0100(18) -0.0038(16) -0.0013(13) -0.0016(16)
Na1 Na1+ 0.023(5) 0.012(5) 0.011(4) 0 -0.003(4) 0
Na2 Na1+ 0.013(4) 0.021(5) 0.020(5) 0 -0.005(4) 0
Na3 Na1+ 0.010(4) 0.021(4) 0.011(4) 0.001(4) 0.002(3) -0.002(4)
O3 O2- 0.006(6) 0.014(8) 0.010(7) 0 0.001(5) 0
F1 F1- 0.015(4) 0.023(5) 0.011(4) 0.005(4) -0.002(3) 0.007(4)
F2 F1- 0.018(5) 0.006(4) 0.020(5) -0.001(4) -0.003(4) -0.003(4)
F3 F1- 0.014(4) 0.013(5) 0.016(4) -0.003(4) 0.007(3) -0.002(4)
O4 O2- 0.009(5) 0.014(5) 0.020(5) 0.005(5) 0.002(4) -0.001(5)
Na4 Na1+ 0.016(5) 0.075(9) 0.012(5) 0 0.000(4) 0
#End of TTdata_261595-ICSD