
#(C) 2019 by FIZ Karlsruhe - Leibniz Institute for Information Infrastructure.  All rights reserved.
data_261527-ICSD
_database_code_ICSD 261527
_audit_creation_date 2011-08-01
_chemical_name_systematic 'Sodium titanium nitride chloride (0.22/1/1/0.98)'
_chemical_formula_structural 'Na0.22 Ti N Cl0.98'
_chemical_formula_sum 'Cl0.98 N1 Na0.22 Ti1'
_exptl_crystal_density_diffrn 3.04
_publ_section_title

;
Structure and superconductivity of the intercalation compounds of Ti N Cl with
pyridine and alkali metals as intercalants
;
loop_
_citation_id
_citation_journal_full
_citation_year
_citation_journal_volume
_citation_page_first
_citation_page_last
_citation_journal_id_ASTM
primary 'Journal of Materials Chemistry' 2009 19 2573 2582 JMACEP
loop_
_publ_author_name
'Yamanaka, S.'
'Yasunaga, T.'
'Yamaguchi, K.'
'Tagawa, M.'
_cell_length_a 4.0170(1)
_cell_length_b 3.2737(1)
_cell_length_c 16.8835(6)
_cell_angle_alpha 90.
_cell_angle_beta 90.
_cell_angle_gamma 90.
_cell_volume 222.03
_cell_formula_units_Z 4
_symmetry_space_group_name_H-M 'B m m b'
_symmetry_Int_Tables_number 63
_refine_ls_R_factor_all 0.0235
loop_
_symmetry_equiv_pos_site_id
_symmetry_equiv_pos_as_xyz
1 '-x, -y+1/2, z'
2 '-x, y+1/2, -z'
3 '-x, y, z'
4 '-x, -y, -z'
5 'x, y+1/2, -z'
6 'x, -y+1/2, z'
7 'x, -y, -z'
8 'x, y, z'
9 '-x+1/2, -y+1/2, z+1/2'
10 '-x+1/2, y+1/2, -z+1/2'
11 '-x+1/2, y, z+1/2'
12 '-x+1/2, -y, -z+1/2'
13 'x+1/2, y+1/2, -z+1/2'
14 'x+1/2, -y+1/2, z+1/2'
15 'x+1/2, -y, -z+1/2'
16 'x+1/2, y, z+1/2'
loop_
_atom_type_symbol
_atom_type_oxidation_number
Ti3+ 3.76
N3- -3
Cl1- -1
Na1+ 1
loop_
_atom_site_label
_atom_site_type_symbol
_atom_site_symmetry_multiplicity
_atom_site_Wyckoff_symbol
_atom_site_fract_x
_atom_site_fract_y
_atom_site_fract_z
_atom_site_B_iso_or_equiv
_atom_site_occupancy
_atom_site_attached_hydrogens
Ti1 Ti3+ 4 c 0 0.25 -0.2120(1) 1 1. 0
N1 N3- 4 c 0 -0.25 -0.2732(4) 1 1. 0
Cl1 Cl1- 4 c 0 -0.25 -0.0975(2) 1 0.978(5) 0
Na1 Na1+ 4 c 0.5 0.25 0 1 0.215(5) 0
#End of TTdata_261527-ICSD