
#(C) 2019 by FIZ Karlsruhe - Leibniz Institute for Information Infrastructure.  All rights reserved.
data_261553-ICSD
_database_code_ICSD 261553
_audit_creation_date 2011-08-01
_chemical_name_systematic 'Sodium strontium niobate (1/2/5)'
_chemical_formula_structural 'Na Sr2 Nb5 O15'
_chemical_formula_sum 'Na1 Nb5 O15 Sr2'
_chemical_name_structure_type Bronze(tet)-Ba3Nb5O15(P4bm)
_exptl_crystal_density_diffrn 5.05
_publ_section_title

;
Structural characterization and Curie temperature determination of a sodium
strontium niobate ferroelectric nanostructured powder
;
loop_
_citation_id
_citation_journal_full
_citation_year
_citation_journal_volume
_citation_page_first
_citation_page_last
_citation_journal_id_ASTM
primary 'Journal of Solid State Chemistry' 2011 184 990 1000 JSSCBI
loop_
_publ_author_name
'Lanfredi, S.'
'Genova, D.H.M.'
'Brito, I.A.O.'
'Lima, A.R.F.'
'Nobre, M.A.L.'
_cell_length_a 12.3495(6)
_cell_length_b 12.3495(6)
_cell_length_c 3.8911(2)
_cell_angle_alpha 90.
_cell_angle_beta 90.
_cell_angle_gamma 90.
_cell_volume 593.43
_cell_formula_units_Z 2
_symmetry_space_group_name_H-M 'P 4 b m'
_symmetry_Int_Tables_number 100
_refine_ls_R_factor_all 0.0428
loop_
_symmetry_equiv_pos_site_id
_symmetry_equiv_pos_as_xyz
1 '-y+1/2, -x+1/2, z'
2 'y+1/2, x+1/2, z'
3 'y, -x, z'
4 '-y, x, z'
5 '-x+1/2, y+1/2, z'
6 'x+1/2, -y+1/2, z'
7 '-x, -y, z'
8 'x, y, z'
loop_
_atom_type_symbol
_atom_type_oxidation_number
Sr2+ 2
Na1+ 1
Sr2+ 2
Nb5+ 5
O2- -2
loop_
_atom_site_label
_atom_site_type_symbol
_atom_site_symmetry_multiplicity
_atom_site_Wyckoff_symbol
_atom_site_fract_x
_atom_site_fract_y
_atom_site_fract_z
_atom_site_B_iso_or_equiv
_atom_site_occupancy
_atom_site_attached_hydrogens
Sr1 Sr2+ 2 a 0 0 0 1.2633(3) 1. 0
Na1 Na1+ 4 c 0.17263(2) 0.67263(2) -0.02115(4) 4.3426(2) 0.5 0
Sr2 Sr2+ 4 c 0.17263(2) 0.67263(2) -0.02115(4) 4.3426(2) 0.5 0
Nb1 Nb5+ 2 b 0 0.5 0.5 2.6845(2) 1. 0
Nb2 Nb5+ 8 d 0.07627(3) 0.21104(3) 0.47820(2) 1.0264(2) 1. 0
O1 O2- 8 d 0.13270(9) 0.06722(9) 0.37197(3) 4.3426(4) 1. 0
O2 O2- 8 d 0.34232(1) 0.00469(8) 0.38305(4) 4.3426(4) 1. 0
O3 O2- 8 d 0.08883(1) 0.19947(9) -0.07274(6) 4.3426(4) 1. 0
O4 O2- 4 c 0.28409(8) 0.78409(8) 0.43520(9) 4.3426(4) 1. 0
O5 O2- 2 b 0 0.5 0.02700(4) 4.3426(4) 1. 0
#End of TTdata_261553-ICSD