
#(C) 2019 by FIZ Karlsruhe - Leibniz Institute for Information Infrastructure.  All rights reserved.
data_261994-ICSD
_database_code_ICSD 261994
_audit_creation_date 2012-02-01
_chemical_name_systematic 'Cesium sodium polyoxovanadate chloride *'
_chemical_formula_structural 'Cs2 (Cs9 Na3 Cl5) (V15 O36 Cl)'
_chemical_formula_sum 'Cl6 Cs11 Na3 O36 V15'
_exptl_crystal_density_diffrn 3.69
_cell_measurement_temperature 293.
_publ_section_title

;
Extended utility of molten-salt chemistry: unprecedented synthesis of a
water-soluble salt-inclusion solid comprised of high-nuclearity vanadium oxide
clusters
;
loop_
_citation_id
_citation_journal_full
_citation_year
_citation_journal_volume
_citation_page_first
_citation_page_last
_citation_journal_id_ASTM
primary 'Inorganic Chemistry' 2011 50 11064 11068 INOCAJ
loop_
_publ_author_name
'Queen, W.L.'
'West, J.P.'
'Hudson, J.'
'Hwu Shioujyh'
_cell_length_a 11.819(4)
_cell_length_b 11.819(4)
_cell_length_c 11.476(2)
_cell_angle_alpha 90.
_cell_angle_beta 90.
_cell_angle_gamma 120.
_cell_volume 1388.3
_cell_formula_units_Z 1
_symmetry_space_group_name_H-M 'P -6 m 2'
_symmetry_Int_Tables_number 187
_refine_ls_R_factor_all 0.0359
loop_
_symmetry_equiv_pos_site_id
_symmetry_equiv_pos_as_xyz
1 'x, x-y, -z'
2 '-x+y, y, -z'
3 '-y, -x, -z'
4 'x, x-y, z'
5 '-x+y, y, z'
6 '-y, -x, z'
7 '-x+y, -x, -z'
8 '-y, x-y, -z'
9 'x, y, -z'
10 '-x+y, -x, z'
11 '-y, x-y, z'
12 'x, y, z'
loop_
_atom_type_symbol
_atom_type_oxidation_number
Cs1+ 1
Cl1- -1
V4+ 4.27
Cs1+ 1
V4+ 4.27
Cl1- -1
O2- -2
Cl1- -1
Na1+ 1
O2- -2
loop_
_atom_site_label
_atom_site_type_symbol
_atom_site_symmetry_multiplicity
_atom_site_Wyckoff_symbol
_atom_site_fract_x
_atom_site_fract_y
_atom_site_fract_z
_atom_site_B_iso_or_equiv
_atom_site_occupancy
_atom_site_attached_hydrogens
Cs1 Cs1+ 3 k 0.29074(14) 0.14537(7) 0.5 0.0363(4) 1 0
Cs2 Cs1+ 6 n 0.47286(5) -0.05428(10) 0.79875(9) 0.0396(3) 1 0
Cs3 Cs1+ 1 e 0.6667 0.3333 1. 0.0729(12) 1 0
Cl1 Cl1- 1 a 0. 0. 1. 0.038(2) 1 0
V1 V4+ 6 n 0.3041(2) 0.15203(11) 0.85362(17) 0.0213(4) 1 0
Cs4 Cs1+ 2 i 0.6667 0.3333 0.6053(3) 0.0401(8) 0.5 0
V2 V4+ 3 j 0.6811(3) -0.15945(14) 1. 0.0183(6) 1 0
V3 V4+ 6 n 0.10196(9) -0.10196(9) 0.75901(17) 0.0184(4) 1 0
Cl2 Cl1- 2 h 0.3333 -0.3333 0.6559(5) 0.0286(12) 1 0
O1 O2- 6 n 0.1495(4) 0.2989(8) 0.6436(8) 0.0234(19) 1 0
Cl3 Cl1- 3 k 0.5036(3) -0.5036(3) 0.5 0.0415(13) 1 0
Na1 Na1+ 3 k 0.2312(4) 0.4624(7) 0.5 0.0347(18) 1 0
O2 O2- 3 j 0.3741(13) 0.1871(6) 1. 0.026(3) 1 0
O3 O2- 6 n 0.4328(11) 0.2164(6) 0.7725(11) 0.038(2) 1 0
O4 O2- 12 o 0.2406(6) -0.0291(5) 0.8742(5) 0.0215(12) 1 0
O5 O2- 6 n -0.0800(5) -0.1601(9) 0.7372(8) 0.0255(18) 1 0
O6 O2- 3 j 0.5230(12) -0.2385(6) 1. 0.035(3) 1 0
loop_
_atom_site_aniso_label
_atom_site_aniso_type_symbol
_atom_site_aniso_U_11
_atom_site_aniso_U_22
_atom_site_aniso_U_33
_atom_site_aniso_U_12
_atom_site_aniso_U_13
_atom_site_aniso_U_23
Cs1 Cs1+ 0.0424(8) 0.0387(6) 0.0290(6) 0.0212(4) 0. 0.
Cs2 Cs1+ 0.0293(4) 0.0460(6) 0.0492(6) 0.0230(3) -0.0069(2) -0.0139(4)
Cs3 Cs1+ 0.0289(8) 0.0289(8) 0.161(4) 0.0144(4) 0. 0.
Cl1 Cl1- 0.041(3) 0.041(3) 0.030(4) 0.0207(15) 0. 0.
V1 V4+ 0.0196(10) 0.0174(7) 0.0277(10) 0.0098(5) 0.0033(8) 0.0016(4)
Cs4 Cs1+ 0.0323(10) 0.0323(10) 0.056(2) 0.0161(5) 0. 0.
V2 V4+ 0.0158(13) 0.0184(10) 0.0197(14) 0.0079(7) 0. 0.
V3 V4+ 0.0189(8) 0.0189(8) 0.0185(9) 0.0104(8) 0.0016(4) -0.0016(4)
Cl2 Cl1- 0.0247(18) 0.0247(18) 0.037(3) 0.0123(9) 0. 0.
O1 O2- 0.025(3) 0.022(4) 0.023(5) 0.011(2) -0.0014(18) -0.003(4)
Cl3 Cl1- 0.038(2) 0.038(2) 0.051(3) 0.020(2) 0. 0.
Na1 Na1+ 0.044(4) 0.017(3) 0.034(4) 0.0083(17) 0. 0.
O2 O2- 0.022(6) 0.028(5) 0.025(7) 0.011(3) 0. 0.
O3 O2- 0.033(6) 0.034(4) 0.048(7) 0.017(3) 0.013(5) 0.006(3)
O4 O2- 0.020(3) 0.019(3) 0.024(3) 0.009(2) 0.000(2) 0.001(2)
O5 O2- 0.022(3) 0.029(5) 0.027(4) 0.014(2) -0.0003(19) -0.001(4)
O6 O2- 0.021(7) 0.026(5) 0.057(9) 0.011(3) 0. 0.
#End of TTdata_261994-ICSD