
#(C) 2019 by FIZ Karlsruhe - Leibniz Institute for Information Infrastructure.  All rights reserved.
data_261946-ICSD
_database_code_ICSD 261946
_audit_creation_date 2012-02-01
_chemical_name_systematic 'Disodium vanadium oxodiphosphate octahydrate - beta'
_chemical_formula_structural 'Na2 V (O) P2 O7 (H2 O)8'
_chemical_formula_sum 'H16 Na2 O16 P2 V1'
_exptl_crystal_density_diffrn 2.04
_cell_measurement_temperature 100.
_publ_section_title
'Facile synthesis of zero-, one-, and two-dimensional vanadyl pyrophosphates'
loop_
_citation_id
_citation_journal_full
_citation_year
_citation_journal_volume
_citation_page_first
_citation_page_last
_citation_journal_id_ASTM
primary 'Inorganic Chemistry' 2011 50 9980 9984 INOCAJ
loop_
_publ_author_name
'Solis-Ibarra, D.'
'Silvia, J.S.'
'Jancik, V.'
'Cummins, C.C.'
_cell_length_a 8.78520(10)
_cell_length_b 9.60940(10)
_cell_length_c 16.7847(3)
_cell_angle_alpha 90.
_cell_angle_beta 98.5710(10)
_cell_angle_gamma 90.
_cell_volume 1401.15
_cell_formula_units_Z 4
_symmetry_space_group_name_H-M 'P 1 21/n 1'
_symmetry_Int_Tables_number 14
_refine_ls_R_factor_all 0.0365
loop_
_symmetry_equiv_pos_site_id
_symmetry_equiv_pos_as_xyz
1 '-x+1/2, y+1/2, -z+1/2'
2 '-x, -y, -z'
3 'x+1/2, -y+1/2, z+1/2'
4 'x, y, z'
loop_
_atom_type_symbol
_atom_type_oxidation_number
P5+ 5
V4+ 4
O2- -2
H1+ 1
V4+ 4
O2- -2
H1+ 1
O2- -2
Na1+ 1
O2- -2
H1+ 1
O2- -2
H1+ 1
O2- -2
H1+ 1
O2- -2
H1+ 1
O2- -2
H1+ 1
O2- -2
H1+ 1
O2- -2
H1+ 1
O2- -2
H1+ 1
O2- -2
H1+ 1
loop_
_atom_site_label
_atom_site_type_symbol
_atom_site_symmetry_multiplicity
_atom_site_Wyckoff_symbol
_atom_site_fract_x
_atom_site_fract_y
_atom_site_fract_z
_atom_site_B_iso_or_equiv
_atom_site_occupancy
_atom_site_attached_hydrogens
P1 P5+ 4 e 0.02390(5) 0.10836(5) 0.18473(3) 0.00574(10) 1 0
P2 P5+ 4 e 0.13574(5) 0.11164(5) 0.35360(3) 0.00528(10) 1 0
V1 V4+ 4 e 0.25858(5) 0.35429(5) 0.24629(3) 0.00438(11) 0.7138(9) 0
O1 O2- 4 e 0.40535(18) 0.2656(2) 0.23022(12) 0.0132(5) 0.7138(9) 0
O2 O2- 4 e 0.04325(18) 0.4781(2) 0.26771(12) 0.0122(5) 0.7138(9) 0
H1 H1+ 4 e -0.0282(18) 0.502(2) 0.2324(10) 0.015 0.7138(9) 0
H2 H1+ 4 e 0.066(3) 0.5602(16) 0.2807(19) 0.015 0.7138(9) 0
V2 V4+ 4 e 0.21048(13) 0.38235(13) 0.25334(7) 0.0093(3) 0.2862(9) 0
O3 O2- 4 e 0.4228(2) 0.2623(2) 0.22402(18) 0.0159(12) 0.2862(9) 0
H3 H1+ 4 e 0.4889(7) 0.266(2) 0.2656(3) 0.019 0.2862(9) 0
H4 H1+ 4 e 0.408(3) 0.1762(5) 0.219(3) 0.019 0.2862(9) 0
O4 O2- 4 e 0.0687(3) 0.4715(4) 0.2756(3) 0.0132(9) 0.2862(9) 0
Na1 Na1+ 4 e -0.02382(8) 0.31489(8) 0.48797(4) 0.01286(17) 1 0
Na2 Na1+ 4 e 0.17638(8) 0.01257(8) 0.55416(4) 0.01041(16) 1 0
O5 O2- 4 e 0.21217(15) 0.25143(14) 0.34315(7) 0.0099(3) 1 0
O6 O2- 4 e 0.24423(15) -0.00951(14) 0.34341(7) 0.0099(3) 1 0
O7 O2- 4 e 0.42103(16) 0.10326(16) 0.54032(9) 0.0176(3) 1 0
H5 H1+ 4 e 0.475(2) 0.122(3) 0.5841(10) 0.021 1 0
H6 H1+ 4 e 0.4529(15) 0.0259(14) 0.5519(6) 0.021 1 0
O8 O2- 4 e -0.13167(15) 0.09077(14) 0.13559(8) 0.0123(3) 1 0
O9 O2- 4 e 0.13626(16) -0.00899(15) 0.17359(8) 0.0153(3) 1 0
O10 O2- 4 e 0.09559(15) 0.25048(14) 0.17425(8) 0.0117(3) 1 0
O11 O2- 4 e -0.00350(14) 0.09901(14) 0.27785(7) 0.0082(3) 1 0
O12 O2- 4 e -0.22856(15) 0.18815(15) 0.51973(8) 0.0133(3) 1 0
H7 H1+ 4 e -0.3081(18) 0.234(2) 0.5038(14) 0.016 1 0
H8 H1+ 4 e -0.243(3) 0.155(2) 0.5636(9) 0.016 1 0
O13 O2- 4 e 0.06122(14) 0.10274(13) 0.42780(7) 0.0081(3) 1 0
O14 O2- 4 e -0.16900(16) 0.37109(15) 0.35806(9) 0.0173(3) 1 0
H9 H1+ 4 e -0.2424(19) 0.428(2) 0.3510(15) 0.021 1 0
H10 H1+ 4 e -0.120(2) 0.398(2) 0.3244(10) 0.021 1 0
O15 O2- 4 e 0.17353(16) 0.47589(16) 0.47625(9) 0.0177(3) 1 0
H11 H1+ 4 e 0.203(2) 0.474(3) 0.4314(9) 0.021 1 0
H12 H1+ 4 e 0.2522(19) 0.465(3) 0.5115(12) 0.021 1 0
O16 O2- 4 e 0.12046(15) 0.22883(15) 0.61204(8) 0.0143(3) 1 0
H13 H1+ 4 e 0.1955(18) 0.280(2) 0.6276(14) 0.017 1 0
H14 H1+ 4 e 0.071(2) 0.226(3) 0.6500(9) 0.017 1 0
O17 O2- 4 e 0.2918(3) -0.1017(3) 0.67428(14) 0.0210(6) 0.717(5) 0
H15 H1+ 4 e 0.222(2) -0.079(4) 0.7002(15) 0.025 0.717(5) 0
H16 H1+ 4 e 0.288(4) -0.1891(15) 0.669(2) 0.025 0.717(5) 0
O18 O2- 4 e 0.3348(9) -0.1299(8) 0.6611(5) 0.043(2) 0.283(5) 0
H17 H1+ 4 e 0.252(3) -0.114(10) 0.630(3) 0.051 0.283(5) 0
H18 H1+ 4 e 0.391(3) -0.0826(19) 0.696(2) 0.051 0.283(5) 0
O19 O2- 4 e 0.5038(2) 0.3549(2) 0.47021(12) 0.0180(5) 0.772(4) 0
H19 H1+ 4 e 0.453(3) 0.286(2) 0.4826(18) 0.022 0.772(4) 0
H20 H1+ 4 e 0.473(4) 0.371(3) 0.4213(9) 0.022 0.772(4) 0
O20 O2- 4 e 0.5091(9) 0.2945(8) 0.4383(5) 0.031(2) 0.228(4) 0
H21 H1+ 4 e 0.457(3) 0.2212(16) 0.437(4) 0.037 0.228(4) 0
H22 H1+ 4 e 0.472(5) 0.365(2) 0.458(3) 0.037 0.228(4) 0
loop_
_atom_site_aniso_label
_atom_site_aniso_type_symbol
_atom_site_aniso_U_11
_atom_site_aniso_U_22
_atom_site_aniso_U_33
_atom_site_aniso_U_12
_atom_site_aniso_U_13
_atom_site_aniso_U_23
P1 P5+ 0.00517(19) 0.0069(2) 0.00448(19) 0.00031(16) -0.00132(16) 0.00035(16)
P2 P5+ 0.00470(18) 0.0078(2) 0.00346(19) -0.00013(16) 0.00114(15) 0.00051(15)
V1 V4+ 0.0046(2) 0.0057(2) 0.00284(19) -0.00081(17) 0.00073(16) -0.00032(16)
O1 O2- 0.0083(7) 0.0197(10) 0.0140(9) 0.0025(7) 0.0089(7) 0.0055(8)
O2 O2- 0.0072(8) 0.0156(9) 0.0128(9) 0.0064(7) -0.0014(7) 0.0035(8)
V2 V4+ 0.0117(6) 0.0118(6) 0.0040(5) -0.0052(5) 0.0001(5) 0.0005(4)
O3 O2- 0.0149(16) 0.020(3) 0.014(3) -0.0023(16) 0.0061(17) -0.002(2)
O4 O2- 0.0131(13) 0.0139(15) 0.0127(16) -0.0020(11) 0.0017(12) 0.0016(13)
Na1 Na1+ 0.0125(3) 0.0125(3) 0.0133(3) -0.0002(3) 0.0009(3) -0.0006(3)
Na2 Na1+ 0.0088(3) 0.0134(3) 0.0090(3) -0.0017(3) 0.0013(3) -0.0004(3)
O5 O2- 0.0129(6) 0.0115(6) 0.0052(6) -0.0051(5) 0.0012(5) 0.0007(5)
O6 O2- 0.0108(6) 0.0137(6) 0.0049(6) 0.0038(5) 0.0001(5) -0.0014(5)
O7 O2- 0.0117(6) 0.0214(7) 0.0192(7) -0.0029(6) 0.0015(5) -0.0068(6)
O8 O2- 0.0098(6) 0.0148(6) 0.0107(6) -0.0029(5) -0.0036(5) 0.0015(5)
O9 O2- 0.0216(7) 0.0181(7) 0.0054(6) 0.0121(6) -0.0005(5) 0.0017(5)
O10 O2- 0.0139(6) 0.0140(6) 0.0061(6) -0.0063(5) -0.0019(5) 0.0003(5)
O11 O2- 0.0055(5) 0.0124(6) 0.0064(6) -0.0005(5) -0.0005(5) 0.0011(5)
O12 O2- 0.0123(6) 0.0162(7) 0.0122(6) 0.0025(5) 0.0046(5) 0.0041(5)
O13 O2- 0.0081(5) 0.0111(6) 0.0056(6) -0.0011(5) 0.0022(5) 0.0009(5)
O14 O2- 0.0156(6) 0.0210(7) 0.0167(7) 0.0075(6) 0.0072(5) 0.0064(6)
O15 O2- 0.0160(7) 0.0217(7) 0.0163(7) 0.0002(6) 0.0059(6) -0.0033(6)
O16 O2- 0.0118(6) 0.0194(7) 0.0122(6) -0.0032(6) 0.0033(5) -0.0037(6)
O17 O2- 0.0117(10) 0.0337(13) 0.0174(11) 0.0020(9) 0.0013(8) -0.0005(9)
O18 O2- 0.043(4) 0.034(3) 0.042(4) -0.010(3) -0.026(3) 0.010(3)
O19 O2- 0.0141(9) 0.0246(11) 0.0143(9) 0.0012(8) -0.0014(7) 0.0084(8)
O20 O2- 0.025(4) 0.025(4) 0.042(5) -0.002(3) 0.000(3) 0.015(4)
#End of TTdata_261946-ICSD