
#(C) 2019 by FIZ Karlsruhe - Leibniz Institute for Information Infrastructure.  All rights reserved.
data_261924-ICSD
_database_code_ICSD 261924
_audit_creation_date 2012-02-01
_chemical_name_systematic
'Heptasodium tetraaluminium tetrakis(diphosphate) orthophosphate'
_chemical_formula_structural 'Na7 Al4 (P2 O7)4 (P O4)'
_chemical_formula_sum 'Al4 Na7 O32 P9'
_chemical_name_structure_type Na7(InP2O7)4PO4
_exptl_crystal_density_diffrn 2.89
_cell_measurement_temperature 296.
_publ_section_title

;
Heptasodium tetraaluminium tetrakis(diphosphate) orthophosphate, Na7 Al4 (P2
O7)4 (P O4)
;
loop_
_citation_id
_citation_journal_full
_citation_year
_citation_journal_volume
_citation_page_first
_citation_page_last
_citation_journal_id_ASTM
primary 'Acta Crystallographica, Section E: Structure Reports Online' 2011 67
i64 i64 ACSEBH
loop_
_publ_author_name
'Zhao Dan'
_cell_length_a 14.054(3)
_cell_length_b 14.054(3)
_cell_length_c 6.1718(16)
_cell_angle_alpha 90.
_cell_angle_beta 90.
_cell_angle_gamma 90.
_cell_volume 1219.02
_cell_formula_units_Z 2
_symmetry_space_group_name_H-M 'P -4 21 c'
_symmetry_Int_Tables_number 114
_refine_ls_R_factor_all 0.017
loop_
_symmetry_equiv_pos_site_id
_symmetry_equiv_pos_as_xyz
1 'y+1/2, x+1/2, z+1/2'
2 'y, -x, -z'
3 '-y+1/2, -x+1/2, z+1/2'
4 '-y, x, -z'
5 'x+1/2, -y+1/2, -z+1/2'
6 '-x, -y, z'
7 '-x+1/2, y+1/2, -z+1/2'
8 'x, y, z'
loop_
_atom_type_symbol
_atom_type_oxidation_number
Na1+ 1
Al3+ 3
P5+ 5
O2- -2
loop_
_atom_site_label
_atom_site_type_symbol
_atom_site_symmetry_multiplicity
_atom_site_Wyckoff_symbol
_atom_site_fract_x
_atom_site_fract_y
_atom_site_fract_z
_atom_site_B_iso_or_equiv
_atom_site_occupancy
_atom_site_attached_hydrogens
Na1 Na1+ 8 e 0.42251(6) 0.75865(7) 0.09314(15) 0.0200(2) 1 0
Na2 Na1+ 4 d 0.5 1. 0.3156(2) 0.0268(3) 1 0
Na3 Na1+ 2 b 0.5 0.5 1. 0.0411(6) 1 0
Al1 Al3+ 8 e 0.32097(4) 0.62225(4) 0.63747(9) 0.00558(13) 1 0
P1 P5+ 8 e 0.62752(3) 0.74207(3) 0.84990(8) 0.00573(11) 1 0
P2 P5+ 8 e 0.46166(3) 0.79988(3) 0.60041(8) 0.00656(11) 1 0
P3 P5+ 2 a 0.5 0.5 0.5 0.00535(19) 1 0
O1 O2- 8 e 0.42717(10) 0.89936(10) 0.5600(2) 0.0117(3) 1 0
O2 O2- 8 e 0.54197(10) 0.81323(10) 0.7882(2) 0.0109(3) 1 0
O3 O2- 8 e 0.38751(10) 0.73621(10) 0.7038(2) 0.0128(3) 1 0
O4 O2- 8 e 0.51085(9) 0.75581(10) 0.4067(2) 0.0104(3) 1 0
O5 O2- 8 e 0.71136(9) 0.80522(10) 0.8791(2) 0.0129(3) 1 0
O6 O2- 8 e 0.59683(10) 0.69263(10) 1.0575(2) 0.0113(3) 1 0
O7 O2- 8 e 0.63718(10) 0.66852(9) 0.6721(2) 0.0087(3) 1 0
O8 O2- 8 e 0.43148(9) 0.55247(10) 0.6522(2) 0.0100(3) 1 0
loop_
_atom_site_aniso_label
_atom_site_aniso_type_symbol
_atom_site_aniso_U_11
_atom_site_aniso_U_22
_atom_site_aniso_U_33
_atom_site_aniso_U_12
_atom_site_aniso_U_13
_atom_site_aniso_U_23
Na1 Na1+ 0.0224(4) 0.0242(5) 0.0133(4) -0.0060(3) -0.0034(4) 0.0031(4)
Na2 Na1+ 0.0280(7) 0.0405(9) 0.0118(6) -0.0216(6) 0. 0.
Na3 Na1+ 0.0561(9) 0.0561(9) 0.0111(9) 0. 0. 0.
Al1 Al3+ 0.0049(2) 0.0063(3) 0.0055(3) 0.0010(2) 0.0002(2) 0.0000(2)
P1 P5+ 0.0056(2) 0.0069(2) 0.0047(2) -0.00024(16) 0.00004(17) 0.00036(18)
P2 P5+ 0.0064(2) 0.0068(2) 0.0064(2) 0.00048(16) -0.00085(19) -0.00024(18)
P3 P5+ 0.0053(3) 0.0053(3) 0.0054(4) 0. 0. 0.
O1 O2- 0.0133(7) 0.0101(6) 0.0117(8) 0.0030(6) -0.0018(6) 0.0007(6)
O2 O2- 0.0106(7) 0.0123(7) 0.0097(7) 0.0043(5) -0.0043(6) -0.0034(6)
O3 O2- 0.0139(7) 0.0127(7) 0.0118(7) -0.0066(6) 0.0023(6) -0.0033(6)
O4 O2- 0.0086(6) 0.0138(7) 0.0088(6) 0.0027(5) 0.0000(5) -0.0019(6)
O5 O2- 0.0101(7) 0.0166(7) 0.0121(8) -0.0056(5) -0.0004(6) -0.0012(6)
O6 O2- 0.0149(7) 0.0134(7) 0.0055(7) -0.0024(5) 0.0008(6) 0.0021(5)
O7 O2- 0.0119(7) 0.0076(7) 0.0065(7) 0.0015(5) -0.0005(5) 0.0007(5)
O8 O2- 0.0081(6) 0.0135(7) 0.0084(6) 0.0039(5) 0.0000(6) -0.0014(5)
#End of TTdata_261924-ICSD