
#(C) 2019 by FIZ Karlsruhe - Leibniz Institute for Information Infrastructure.  All rights reserved.
data_262003-ICSD
_database_code_ICSD 262003
_audit_creation_date 2012-02-01
_chemical_name_systematic 'Disodium cesium hexaberyllium pentaborate'
_chemical_formula_structural 'Na2 Cs Be6 B5 O15'
_chemical_formula_sum 'B5 Be6 Cs1 Na2 O15'
_exptl_crystal_density_diffrn 2.69
_cell_measurement_temperature 293.
_publ_section_title

;
Na2 Cs Be6 B5 O15: an alkaline beryllium borate as a deep-UV nonlinear optical
crystal
;
loop_
_citation_id
_citation_journal_full
_citation_year
_citation_journal_volume
_citation_page_first
_citation_page_last
_citation_journal_id_ASTM
primary 'Journal of the American Chemical Society' 2011 133 11458 11461 JACSAT
loop_
_publ_author_name
'Wang Shichao'
'Ye Ning'
_cell_length_a 13.885(4)
_cell_length_b 4.4332(9)
_cell_length_c 10.874(2)
_cell_angle_alpha 90
_cell_angle_beta 103.141(12)
_cell_angle_gamma 90
_cell_volume 651.82
_cell_formula_units_Z 2
_symmetry_space_group_name_H-M 'C 1 2 1'
_symmetry_Int_Tables_number 5
_refine_ls_R_factor_all 0.0186
loop_
_symmetry_equiv_pos_site_id
_symmetry_equiv_pos_as_xyz
1 '-x, y, -z'
2 'x, y, z'
3 '-x+1/2, y+1/2, -z'
4 'x+1/2, y+1/2, z'
loop_
_atom_type_symbol
_atom_type_oxidation_number
Na1+ 1
Cs1+ 1
Be2+ 2
B3+ 3
O2- -2
loop_
_atom_site_label
_atom_site_type_symbol
_atom_site_symmetry_multiplicity
_atom_site_Wyckoff_symbol
_atom_site_fract_x
_atom_site_fract_y
_atom_site_fract_z
_atom_site_B_iso_or_equiv
_atom_site_occupancy
_atom_site_attached_hydrogens
Na1 Na1+ 4 c 0.81270(8) 0.9638(11) 0.45829(9) 0.0164(4) 1 0
Cs1 Cs1+ 2 a 1 0.48186(10) 0 0.02824(12) 1 0
Be1 Be2+ 4 c 0.4883(2) 0.455(2) 0.3649(3) 0.0061(10) 1 0
Be2 Be2+ 4 c 0.7426(2) 0.462(2) 0.0777(3) 0.0083(8) 1 0
Be3 Be2+ 4 c 0.8580(2) 0.460(3) 0.2977(3) 0.0085(10) 1 0
B1 B3+ 4 c 0.66585(18) 0.475(2) 0.2749(2) 0.0101(5) 1 0
B2 B3+ 4 c 0.83854(18) -0.036(2) 0.1640(2) 0.0076(7) 1 0
B3 B3+ 2 b 1 0.450(3) 0.5 0.0052(15) 1 0
O1 O2- 4 c 0.58894(12) 0.475(2) 0.33248(16) 0.0211(5) 1 0
O2 O2- 4 c 0.65492(11) 0.4760(18) 0.14752(14) 0.0137(4) 1 0
O3 O2- 4 c 0.76134(12) 0.4657(17) 0.35674(15) 0.0116(5) 1 0
O4 O2- 4 c 0.83660(14) 0.2659(5) 0.16484(17) 0.0073(4) 1 0
O5 O2- 4 c 0.89099(15) -0.1961(5) 0.26812(17) 0.0090(4) 1 0
O6 O2- 4 c 0.78864(15) -0.1993(5) 0.06070(17) 0.0093(4) 1 0
O7 O2- 4 c 0.94693(14) 0.2932(5) 0.39885(17) 0.0086(4) 1 0
O8 O2- 2 b 1 0.7593(7) 0.5 0.0091(6) 1 0
loop_
_atom_site_aniso_label
_atom_site_aniso_type_symbol
_atom_site_aniso_U_11
_atom_site_aniso_U_22
_atom_site_aniso_U_33
_atom_site_aniso_U_12
_atom_site_aniso_U_13
_atom_site_aniso_U_23
Na1 Na1+ 0.0160(4) 0.0189(11) 0.0154(4) -0.0015(12) 0.0057(4) -0.0011(11)
Cs1 Cs1+ 0.01809(13) 0.02254(19) 0.04621(18) 0 0.01171(10) 0
Be1 Be2+ 0.0077(12) 0.004(3) 0.0059(11) 0.002(2) -0.0005(9) -0.002(2)
Be2 Be2+ 0.0069(11) 0.010(2) 0.0071(12) -0.001(3) -0.0009(9) 0.001(2)
Be3 Be2+ 0.0063(12) 0.010(3) 0.0086(12) 0.002(3) 0.0006(10) 0.002(2)
B1 B3+ 0.0075(10) 0.0094(15) 0.0133(11) 0.003(3) 0.0023(9) 0.003(3)
B2 B3+ 0.0035(10) 0.012(2) 0.0079(11) -0.002(3) 0.0014(8) -0.002(3)
B3 B3+ 0.0049(14) 0.001(5) 0.0098(15) 0 0.0023(12) 0
O1 O2- 0.0091(7) 0.0367(14) 0.0195(8) 0.000(3) 0.0075(6) -0.002(3)
O2 O2- 0.0079(7) 0.0214(11) 0.0109(7) 0.001(2) 0.0005(6) 0.005(2)
O3 O2- 0.0073(7) 0.0190(15) 0.0088(7) 0.000(2) 0.0020(6) -0.0025(18)
O4 O2- 0.0070(9) 0.0045(11) 0.0090(8) 0.0013(8) -0.0010(7) -0.0005(7)
O5 O2- 0.0099(9) 0.0061(12) 0.0089(9) 0.0000(8) -0.0023(7) 0.0011(8)
O6 O2- 0.0114(9) 0.0070(12) 0.0078(9) -0.0015(9) -0.0017(7) 0.0000(8)
O7 O2- 0.0077(9) 0.0074(12) 0.0087(9) 0.0009(8) -0.0022(7) -0.0005(8)
O8 O2- 0.0120(13) 0.0073(17) 0.0068(12) 0 -0.0004(10) 0
#End of TTdata_262003-ICSD