
#(C) 2019 by FIZ Karlsruhe - Leibniz Institute for Information Infrastructure.  All rights reserved.
data_26207-ICSD
_database_code_ICSD 26207
_audit_creation_date 1986-10-02
_audit_update_record 2012-08-01
_chemical_name_systematic 'Sodium lithium thorium fluoride (3/4/6/31)'
_chemical_formula_structural 'Na3 Li4 Th6 F31'
_chemical_formula_sum 'F31 Li4 Na3 Th6'
_exptl_crystal_density_diffrn 6.11
_publ_section_title

;
The Neutron and X-ray Crystal Structure of (Na Li)7 Th6 F31 with More Than One
Least-Squares Minimum
;
loop_
_citation_id
_citation_journal_full
_citation_year
_citation_journal_volume
_citation_page_first
_citation_page_last
_citation_journal_id_ASTM
primary

;
Acta Crystallographica, Section B: Structural Crystallography and Crystal
Chemistry
; 1969 25 2519 2525 ACBCAR
loop_
_publ_author_name
'Brunton, G.'
'Sears, D.R.'
_cell_length_a 9.9056(30)
_cell_length_b 9.9056(30)
_cell_length_c 13.2820(5)
_cell_angle_alpha 90.
_cell_angle_beta 90.
_cell_angle_gamma 120.
_cell_volume 1128.64
_cell_formula_units_Z 2
_symmetry_space_group_name_H-M 'P 3 c 1'
_symmetry_Int_Tables_number 158
_refine_ls_R_factor_all 0.096
loop_
_symmetry_equiv_pos_site_id
_symmetry_equiv_pos_as_xyz
1 'x, x-y, z+1/2'
2 '-x+y, y, z+1/2'
3 '-y, -x, z+1/2'
4 '-x+y, -x, z'
5 '-y, x-y, z'
6 'x, y, z'
loop_
_atom_type_symbol
_atom_type_oxidation_number
Th4+ 4
F1- -1
Na1+ 1
Li1+ 1
loop_
_atom_site_label
_atom_site_type_symbol
_atom_site_symmetry_multiplicity
_atom_site_Wyckoff_symbol
_atom_site_fract_x
_atom_site_fract_y
_atom_site_fract_z
_atom_site_B_iso_or_equiv
_atom_site_occupancy
_atom_site_attached_hydrogens
Th1 Th4+ 6 d 0.0782(4) 0.3954(4) 0 . 1. 0
Th2 Th4+ 6 d 0.9148(4) 0.5911(4) 0.2059(2) . 1. 0
F1 F1- 6 d 0.1370(7) 0.4291(8) -.1862(5) . 1. 0
F2 F1- 6 d 0.8658(8) 0.5552(7) 0.3853(6) . 1. 0
F3 F1- 6 d 0.1191(8) 0.3061(8) -.3759(6) . 1. 0
F4 F1- 6 d 0.8781 0.6893(8) 0.5827(6) . 1. 0
F5 F1- 6 d 0.3431(6) 0.5103(7) -.0444(5) . 1. 0
F6 F1- 6 d 0.6479(8) 0.5494(7) 0.2615(5) . 1. 0
F7 F1- 6 d 0.1033(8) 0.1966(7) -.0655(6) . 1. 0
F8 F1- 6 d 0.9191(7) 0.8111(7) 0.2643(7) . 1. 0
F9 F1- 6 d 0.1295(8) 0.5851(7) -.3531(6) . 1. 0
F10 F1- 6 d 0.8836(8) 0.4214(8) 0.5508(6) . 1. 0
F11 F1- 2 c 0.6667 0.3333 -.306(1) . 1. 0
Na1 Na1+ 2 c 0.6667 0.3333 -.047(2) . 1. 0
Na2 Na1+ 2 b 0.3333 0.6667 0.258(2) . 1. 0
Na3 Na1+ 2 a 0 0 0.121(2) . 1. 0
Li1 Li1+ 2 a 0 0 -.139(3) . 1. 0
Li2 Li1+ 6 d 0.233(4) 0.283(3) -.188(3) . 1. 0
loop_
_atom_site_aniso_label
_atom_site_aniso_type_symbol
_atom_site_aniso_beta_11
_atom_site_aniso_beta_22
_atom_site_aniso_beta_33
_atom_site_aniso_beta_12
_atom_site_aniso_beta_13
_atom_site_aniso_beta_23
Th1 Th4+ 0.0012(3) 0.0012(3) 0.0006(2) 0.0006(2) 0.0002(2) -.0001(2)
Th2 Th4+ 0.0008(3) 0.0017(3) 0.0003(2) 0.0007(3) 0.0001(2) 0.0003(2)
F1 F1- 0.0029(7) 0.0038(7) 0.0007(3) 0.0003(6) -.0005(4) -.0001(4)
F2 F1- 0.0036(7) 0.0030(7) 0.0009(3) 0.0007(6) -.0008(4) -.0002(4)
F3 F1- 0.0031(7) 0.0039(8) 0.0015(4) 0.0020(6) 0.0011(5) 0.0002(4)
F4 F1- 0.0037(8) 0.0028(7) 0.0012(4) 0.0015(6) 0.0006(4) -.0004(4)
F5 F1- 0.0015(6) 0.0047(7) 0.0022(3) 0.0001(5) -.0005(3) 0.0005(4)
F6 F1- 0.0069(9) 0.0038(7) 0.0021(3) 0.0006(7) 0.0004(4) 0.0003(4)
F7 F1- 0.0059(8) 0.0025(7) 0.0015(3) 0.0031(7) -.0001(4) -.0006(4)
F8 F1- 0.0014(6) 0.0031(7) 0.0018(3) 0.0005(6) 0.0009(4) 0.0001(4)
F9 F1- 0.0026(7) 0.0020(7) 0.0017(4) 0.0003(6) -.0014(4) 0.0004(4)
F10 F1- 0.0022(7) 0.0033(7) 0.0013(6) -.0003(6) -.0007(4) 0.0008(4)
F11 F1- 0.0038(7) 0.0038(7) 0.008(1) 0.0019(7) 0 0
Na1 Na1+ 0.002(1) 0.002(1) 0.003(2) 0.001(1) 0 0
Na2 Na1+ 0.005(2) 0.005(2) 0.0006(8) 0.0025(20) 0 0
Na3 Na1+ 0.006(2) 0.006(2) 0.002(2) 0.003(2) 0 0
Li1 Li1+ 0.003(2) 0.003(2) 0.002(2) 0.0015(20) 0 0
Li2 Li1+ 0.027(6) 0.004(3) 0.014(4) -.0055(20) 0.012(4) -.001(3)
#End of TTdata_26207-ICSD