
#(C) 2019 by FIZ Karlsruhe - Leibniz Institute for Information Infrastructure.  All rights reserved.
data_262276-ICSD
_database_code_ICSD 262276
_audit_creation_date 2012-08-01
_chemical_name_systematic 'Sodium iron sulfate(VI) fluoride'
_chemical_formula_structural 'Na Fe (S O4) F'
_chemical_formula_sum 'F1 Fe1 Na1 O4 S1'
_chemical_name_structure_type Tilasite
_exptl_crystal_density_diffrn 3.36
_publ_section_title

;
Synthesis and crystal chemistry of the Na M S O4 F family (M = Mg, Fe, Co, Cu,
Zn)
;
loop_
_citation_id
_citation_journal_full
_citation_year
_citation_journal_volume
_citation_page_first
_citation_page_last
_citation_journal_id_ASTM
primary 'Solid State Sciences' 2012 14 15 20 SSSCFJ
loop_
_publ_author_name
'Reynaud, M.'
'Barpanda, P.'
'Rousse, G.'
'Chotard, J.N.'
'Melot, B.C.'
'Recham, N.'
'Tarascon, J.M.'
_cell_length_a 6.68015(19)
_cell_length_b 8.7062(2)
_cell_length_c 7.19131(18)
_cell_angle_alpha 90
_cell_angle_beta 113.520(2)
_cell_angle_gamma 90
_cell_volume 383.49
_cell_formula_units_Z 4
_symmetry_space_group_name_H-M 'C 1 2/c 1'
_symmetry_Int_Tables_number 15
_refine_ls_R_factor_all 0.0295
loop_
_symmetry_equiv_pos_site_id
_symmetry_equiv_pos_as_xyz
1 'x, -y, z+1/2'
2 '-x, -y, -z'
3 '-x, y, -z+1/2'
4 'x, y, z'
5 'x+1/2, -y+1/2, z+1/2'
6 '-x+1/2, -y+1/2, -z'
7 '-x+1/2, y+1/2, -z+1/2'
8 'x+1/2, y+1/2, z'
loop_
_atom_type_symbol
_atom_type_oxidation_number
Na1+ 1
Fe2+ 2
S6+ 6
O2- -2
F1- -1
loop_
_atom_site_label
_atom_site_type_symbol
_atom_site_symmetry_multiplicity
_atom_site_Wyckoff_symbol
_atom_site_fract_x
_atom_site_fract_y
_atom_site_fract_z
_atom_site_B_iso_or_equiv
_atom_site_occupancy
_atom_site_attached_hydrogens
Na1 Na1+ 4 e 0 0.3376(6) 0.25 3.5(2) 1. 0
Fe1 Fe2+ 4 a 0 0 0 1.60(8) 1. 0
S1 S6+ 4 e 0 0.6809(5) 0.25 0.90(17) 1. 0
O1 O2- 8 f 0.6054(9) 0.2785(5) 0.1446(9) 1.22(11) 1. 0
O2 O2- 8 f 0.3358(8) 0.0819(7) 0.1009(8) 1.22(11) 1. 0
F1 F1- 4 e 0 0.0802(7) 0.25 0.6(2) 1. 0
#End of TTdata_262276-ICSD