
#(C) 2019 by FIZ Karlsruhe - Leibniz Institute for Information Infrastructure.  All rights reserved.
data_262584-ICSD
_database_code_ICSD 262584
_audit_creation_date 2012-08-01
_chemical_name_systematic 'Tetrasodium tetraarsenic dieuropium decasulfide'
_chemical_formula_structural 'Na4 As4 Eu2 S10'
_chemical_formula_sum 'As4 Eu2 Na4 S10'
_exptl_crystal_density_diffrn 3.66
_cell_measurement_temperature 100.
_publ_section_title

;
Na2 Eu As2 S5, Na Eu As S4, and Na4 Eu (As S4)2: controlling the valency of
arsenic in polysulfide fluxes
;
loop_
_citation_id
_citation_journal_full
_citation_year
_citation_journal_volume
_citation_page_first
_citation_page_last
_citation_journal_id_ASTM
primary 'Inorganic Chemistry' 2012 51 4293 4299 INOCAJ
loop_
_publ_author_name
'Bera, T.K.'
'Kanatzidis, M.G.'
_cell_length_a 28.966(2)
_cell_length_b 5.7085(3)
_cell_length_c 11.3641(9)
_cell_angle_alpha 90.
_cell_angle_beta 101.270(6)
_cell_angle_gamma 90.
_cell_volume 1842.85
_cell_formula_units_Z 4
_symmetry_space_group_name_H-M 'P 1 21/c 1'
_symmetry_Int_Tables_number 14
_refine_ls_R_factor_all 0.0484
loop_
_symmetry_equiv_pos_site_id
_symmetry_equiv_pos_as_xyz
1 'x, -y+1/2, z+1/2'
2 '-x, -y, -z'
3 '-x, y+1/2, -z+1/2'
4 'x, y, z'
loop_
_atom_type_symbol
_atom_type_oxidation_number
Na1+ 1
Eu2+ 2
As3+ 3
S2- -2
loop_
_atom_site_label
_atom_site_type_symbol
_atom_site_symmetry_multiplicity
_atom_site_Wyckoff_symbol
_atom_site_fract_x
_atom_site_fract_y
_atom_site_fract_z
_atom_site_B_iso_or_equiv
_atom_site_occupancy
_atom_site_attached_hydrogens
Na1 Na1+ 4 e 0.24666(9) 0.7615(6) 0.5530(2) 0.0054(5) 1 0
Na2 Na1+ 4 e 0.25334(9) 0.2590(6) 0.8064(2) 0.0059(5) 1 0
Na3 Na1+ 4 e 0.34283(10) 0.7901(6) 0.8595(3) 0.0105(6) 1 0
Na4 Na1+ 4 e 0.15712(10) 0.2155(6) 0.0158(3) 0.0101(6) 1 0
Eu1 Eu2+ 4 e 0.453254(11) 0.31759(7) 0.90551(3) 0.00432(11) 0.960(3) 0
Eu2 Eu2+ 4 e 0.4533(3) 0.179(2) 0.9030(7) 0.00432(11) 0.04 0
Eu3 Eu2+ 4 e 0.046798(11) 0.68255(7) 0.95196(3) 0.00418(11) 0.959(3) 0
Eu4 Eu2+ 4 e 0.0466(3) 0.820(2) 0.9500(7) 0.00418(11) 0.04 0
As1 As3+ 4 e 0.57271(2) 0.24352(13) 0.84625(6) 0.00417(14) 1 0
As2 As3+ 4 e 0.34210(2) 0.25741(13) 0.62042(6) 0.00426(14) 1 0
As3 As3+ 4 e 0.15824(2) 0.75141(13) 0.77841(6) 0.00429(14) 1 0
As4 As3+ 4 e 0.92757(2) 0.75980(13) 0.77402(6) 0.00410(14) 1 0
S1 S2- 4 e 0.26448(5) 0.2608(3) 0.56044(14) 0.0059(3) 1 0
S2 S2- 4 e 0.35051(5) 0.2910(3) 0.81929(14) 0.0066(3) 1 0
S3 S2- 4 e 0.65194(5) 0.3505(3) 0.89293(15) 0.0058(3) 1 0
S4 S2- 4 e 0.46370(6) 0.4118(3) 0.17752(15) 0.0063(3) 1 0
S5 S2- 4 e 0.55712(5) 0.1783(3) 0.02868(15) 0.0065(3) 1 0
S6 S2- 4 e 0.94299(5) 0.8214(3) 0.97219(14) 0.0059(3) 1 0
S7 S2- 4 e 0.84823(5) 0.6576(3) 0.74128(14) 0.0055(3) 1 0
S8 S2- 4 e 0.23592(5) 0.7509(3) 0.79634(14) 0.0059(3) 1 0
S9 S2- 4 e 0.03662(6) 0.5867(3) 0.21387(15) 0.0065(3) 1 0
S10 S2- 4 e 0.14952(5) 0.7152(3) 0.96880(14) 0.0067(3) 1 0
loop_
_atom_site_aniso_label
_atom_site_aniso_type_symbol
_atom_site_aniso_U_11
_atom_site_aniso_U_22
_atom_site_aniso_U_33
_atom_site_aniso_U_12
_atom_site_aniso_U_13
_atom_site_aniso_U_23
Na1 Na1+ 0.0065(11) 0.0058(14) 0.0036(11) -0.0002(10) 0.0007(8) 0.0003(10)
Na2 Na1+ 0.0045(11) 0.0071(14) 0.0062(11) 0.0016(10) 0.0015(9) 0.0016(11)
Na3 Na1+ 0.0097(12) 0.0133(17) 0.0085(12) 0.0000(11) 0.0019(9) 0.0052(11)
Na4 Na1+ 0.0104(12) 0.0118(17) 0.0081(12) 0.0006(11) 0.0023(9) -0.0039(11)
Eu1 Eu2+ 0.00468(15) 0.0040(2) 0.00420(15) -0.00029(11) 0.00059(10) -0.00063(12)
Eu2 Eu2+ 0.00468(15) 0.0040(2) 0.00420(15) -0.00029(11) 0.00059(10) -0.00063(12)
Eu3 Eu2+ 0.00455(15) 0.0038(2) 0.00427(15) -0.00024(11) 0.00105(10) 0.00042(12)
Eu4 Eu2+ 0.00455(15) 0.0038(2) 0.00427(15) -0.00024(11) 0.00105(10) 0.00042(12)
As1 As3+ 0.0039(3) 0.0044(3) 0.0044(3) -0.0004(2) 0.00120(19) -0.0005(2)
As2 As3+ 0.0041(3) 0.0045(3) 0.0042(3) -0.0002(2) 0.00096(19) 0.0003(2)
As3 As3+ 0.0043(3) 0.0043(3) 0.0041(3) -0.0005(2) 0.00062(19) -0.0005(2)
As4 As3+ 0.0037(3) 0.0044(3) 0.0041(3) -0.0002(2) 0.00039(19) 0.0007(2)
S1 S2- 0.0056(6) 0.0061(8) 0.0056(6) 0.0013(5) 0.0002(5) 0.0007(6)
S2 S2- 0.0053(6) 0.0108(9) 0.0035(6) 0.0003(5) 0.0004(5) 0.0001(6)
S3 S2- 0.0047(6) 0.0056(8) 0.0069(7) -0.0001(5) 0.0008(5) 0.0007(6)
S4 S2- 0.0062(6) 0.0058(8) 0.0072(7) 0.0007(5) 0.0022(5) 0.0009(6)
S5 S2- 0.0062(6) 0.0072(8) 0.0063(6) 0.0010(5) 0.0017(5) 0.0016(6)
S6 S2- 0.0065(6) 0.0060(8) 0.0051(6) 0.0002(5) 0.0010(5) -0.0009(6)
S7 S2- 0.0051(6) 0.0056(8) 0.0053(6) 0.0000(5) -0.0002(5) 0.0003(6)
S8 S2- 0.0054(6) 0.0060(8) 0.0065(6) 0.0010(5) 0.0019(5) 0.0007(6)
S9 S2- 0.0066(6) 0.0065(8) 0.0060(7) 0.0010(5) 0.0001(5) -0.0011(6)
S10 S2- 0.0060(6) 0.0100(9) 0.0042(6) 0.0004(6) 0.0017(5) 0.0009(6)
#End of TTdata_262584-ICSD