
#(C) 2019 by FIZ Karlsruhe - Leibniz Institute for Information Infrastructure.  All rights reserved.
data_262781-ICSD
_database_code_ICSD 262781
_audit_creation_date 2012-08-01
_chemical_name_systematic
'Sodium pentapotassium pentanickel tetrakis(diphosphate)'
_chemical_formula_structural 'Na K5 Ni5 (P2 O7)4'
_chemical_formula_sum 'K5 Na1 Ni5 O28 P8'
_exptl_crystal_density_diffrn 3.29
_cell_measurement_temperature 296.
_publ_section_title
'Sodium pentapotassium pentanickel tetra(diphosphate), Na K5 Ni5 (P2 O7)4'
loop_
_citation_id
_citation_journal_full
_citation_year
_citation_journal_volume
_citation_page_first
_citation_page_last
_citation_journal_id_ASTM
primary 'Acta Crystallographica, Section E: Structure Reports Online' 2012 68
i43 i43 ACSEBH
loop_
_publ_author_name
'Moutataouia, M.'
'Lamire, M.'
'Saadi, M.'
'El Ammari, L.'
_cell_length_a 7.188(4)
_cell_length_b 9.282(5)
_cell_length_c 10.026(5)
_cell_angle_alpha 109.31(2)
_cell_angle_beta 90.019(12)
_cell_angle_gamma 104.066(13)
_cell_volume 609.98
_cell_formula_units_Z 1
_symmetry_space_group_name_H-M 'P -1'
_symmetry_Int_Tables_number 2
_refine_ls_R_factor_all 0.0267
loop_
_symmetry_equiv_pos_site_id
_symmetry_equiv_pos_as_xyz
1 '-x, -y, -z'
2 'x, y, z'
loop_
_atom_type_symbol
_atom_type_oxidation_number
Ni2+ 2
Na1+ 1
K1+ 1
P5+ 5
O2- -2
loop_
_atom_site_label
_atom_site_type_symbol
_atom_site_symmetry_multiplicity
_atom_site_Wyckoff_symbol
_atom_site_fract_x
_atom_site_fract_y
_atom_site_fract_z
_atom_site_B_iso_or_equiv
_atom_site_occupancy
_atom_site_attached_hydrogens
Ni1 Ni2+ 1 a 0. 0. 0. 0.00836(10) 1 0
Ni2 Ni2+ 2 i 0.36001(4) -0.04138(3) -0.12590(3) 0.01024(8) 1 0
Ni3 Ni2+ 1 e 0.5 0.5 0. 0.02272(13) 1 0
Ni4 Ni2+ 2 i 0.42559(7) 0.37578(6) 0.68239(5) 0.01395(11) 0.5 0
Na1 Na1+ 2 i 0.42559(7) 0.37578(6) 0.68239(5) 0.01395(11) 0.5 0
K1 K1+ 1 f 0.5 0. 0.5 0.02299(18) 1 0
K2 K1+ 2 i 0.05087(10) 0.19327(8) 0.42045(7) 0.02536(14) 1 0
K3 K1+ 2 i 0.00287(10) 0.45372(7) 0.18072(8) 0.02541(14) 1 0
P1 P5+ 2 i 0.36193(8) 0.26003(7) 0.17071(6) 0.00759(12) 1 0
P2 P5+ 2 i 0.65917(10) 0.34427(8) 0.39912(7) 0.01475(14) 1 0
P3 P5+ 2 i -0.14668(8) -0.18481(7) 0.22059(6) 0.00879(12) 1 0
P4 P5+ 2 i 0.25079(8) -0.18870(7) 0.12603(7) 0.00936(12) 1 0
O1 O2- 2 i 0.1486(2) 0.1946(2) 0.16422(19) 0.0129(3) 1 0
O2 O2- 2 i 0.4605(2) 0.1478(2) 0.06750(18) 0.0110(3) 1 0
O3 O2- 2 i 0.4162(3) 0.4235(2) 0.15797(19) 0.0134(3) 1 0
O4 O2- 2 i 0.4368(2) 0.2883(2) 0.33014(19) 0.0118(3) 1 0
O5 O2- 2 i 0.6436(5) 0.3267(3) 0.5429(3) 0.0456(8) 1 0
O6 O2- 2 i 0.7578(3) 0.2302(3) 0.3004(3) 0.0410(7) 1 0
O7 O2- 2 i 0.7412(3) 0.5116(2) 0.4030(2) 0.0239(4) 1 0
O8 O2- 2 i -0.2634(3) -0.3502(2) 0.1363(2) 0.0172(4) 1 0
O9 O2- 2 i -0.2049(3) -0.1394(2) 0.3710(2) 0.0174(4) 1 0
O10 O2- 2 i -0.1531(2) -0.0619(2) 0.15276(19) 0.0120(3) 1 0
O11 O2- 2 i 0.1762(2) -0.1410(2) 0.00776(19) 0.0107(3) 1 0
O12 O2- 2 i 0.2715(3) -0.3547(2) 0.0742(2) 0.0167(4) 1 0
O13 O2- 2 i 0.4217(3) -0.0687(2) 0.21951(19) 0.0143(3) 1 0
O14 O2- 2 i 0.0753(3) -0.1883(2) 0.2327(2) 0.0164(4) 1 0
loop_
_atom_site_aniso_label
_atom_site_aniso_type_symbol
_atom_site_aniso_U_11
_atom_site_aniso_U_22
_atom_site_aniso_U_33
_atom_site_aniso_U_12
_atom_site_aniso_U_13
_atom_site_aniso_U_23
Ni1 Ni2+ 0.00652(18) 0.00716(18) 0.0118(2) 0.00142(14) 0.00205(15) 0.00396(15)
Ni2 Ni2+ 0.00772(14) 0.00786(14) 0.01396(16) 0.00273(11) 0.00143(11) 0.00166(11)
Ni3 Ni2+ 0.0308(3) 0.0183(2) 0.0120(2) -0.0114(2) -0.0028(2) 0.00858(19)
Ni4 Ni2+ 0.0144(2) 0.0095(2) 0.0161(2) -0.00049(17) -0.00043(18) 0.00461(18)
Na1 Na1+ 0.0144(2) 0.0095(2) 0.0161(2) -0.00049(17) -0.00043(18) 0.00461(18)
K1 K1+ 0.0363(5) 0.0181(4) 0.0159(4) 0.0108(3) 0.0048(3) 0.0049(3)
K2 K1+ 0.0255(3) 0.0285(3) 0.0226(3) 0.0048(3) -0.0035(2) 0.0110(3)
K3 K1+ 0.0256(3) 0.0181(3) 0.0365(4) 0.0065(2) 0.0080(3) 0.0139(3)
P1 P5+ 0.0070(2) 0.0060(2) 0.0097(3) 0.00174(19) 0.0021(2) 0.0025(2)
P2 P5+ 0.0162(3) 0.0093(3) 0.0164(3) 0.0049(2) -0.0048(2) 0.0001(2)
P3 P5+ 0.0081(3) 0.0080(3) 0.0102(3) 0.0015(2) 0.0023(2) 0.0034(2)
P4 P5+ 0.0078(3) 0.0087(3) 0.0124(3) 0.0021(2) 0.0017(2) 0.0047(2)
O1 O2- 0.0082(8) 0.0119(8) 0.0164(8) 0.0017(6) 0.0021(6) 0.0025(7)
O2 O2- 0.0098(8) 0.0098(7) 0.0116(8) 0.0037(6) 0.0029(6) 0.0004(6)
O3 O2- 0.0178(9) 0.0092(8) 0.0141(8) 0.0024(7) 0.0027(7) 0.0058(7)
O4 O2- 0.0097(8) 0.0142(8) 0.0111(8) 0.0020(6) 0.0019(6) 0.0049(7)
O5 O2- 0.088(2) 0.0238(12) 0.0236(12) 0.0141(13) -0.0258(13) 0.0071(10)
O6 O2- 0.0198(11) 0.0277(12) 0.0533(16) 0.0167(10) -0.0176(11) -0.0223(11)
O7 O2- 0.0176(9) 0.0138(9) 0.0312(11) -0.0018(7) 0.0042(8) -0.0001(8)
O8 O2- 0.0208(9) 0.0105(8) 0.0165(9) 0.0004(7) -0.0026(7) 0.0024(7)
O9 O2- 0.0195(9) 0.0202(9) 0.0126(8) 0.0070(7) 0.0047(7) 0.0043(7)
O10 O2- 0.0106(8) 0.0115(8) 0.0174(8) 0.0050(6) 0.0044(6) 0.0081(7)
O11 O2- 0.0085(7) 0.0118(8) 0.0140(8) 0.0033(6) 0.0013(6) 0.0066(6)
O12 O2- 0.0211(9) 0.0093(8) 0.0218(9) 0.0061(7) 0.0042(7) 0.0065(7)
O13 O2- 0.0108(8) 0.0177(9) 0.0135(8) 0.0005(7) 0.0001(6) 0.0062(7)
O14 O2- 0.0102(8) 0.0264(10) 0.0195(9) 0.0071(7) 0.0051(7) 0.0150(8)
#End of TTdata_262781-ICSD