
#(C) 2019 by FIZ Karlsruhe - Leibniz Institute for Information Infrastructure.  All rights reserved.
data_262733-ICSD
_database_code_ICSD 262733
_audit_creation_date 2012-08-01
_chemical_name_systematic 'Trisodium scandium bis(orthoborate)'
_chemical_formula_structural 'Na3 Sc (B O3)2'
_chemical_formula_sum 'B2 Na3 O6 Sc1'
_exptl_crystal_density_diffrn 2.88
_cell_measurement_temperature 153.
_publ_section_title 'Trisodium scandium bis(orthoborate)'
loop_
_citation_id
_citation_journal_full
_citation_year
_citation_journal_volume
_citation_page_first
_citation_page_last
_citation_journal_id_ASTM
primary 'Acta Crystallographica, Section E: Structure Reports Online' 2012 68
i36 i36 ACSEBH
loop_
_publ_author_name
'Fang Jinzhi'
'Zhang Xinyuan'
'Yao Jiyong'
'Zhang Guochun'
'Wang Kunpeng'
_cell_length_a 5.0739(10)
_cell_length_b 8.9930(18)
_cell_length_c 7.029(2)
_cell_angle_alpha 90.
_cell_angle_beta 123.60(2)
_cell_angle_gamma 90.
_cell_volume 267.14
_cell_formula_units_Z 2
_symmetry_space_group_name_H-M 'P 1 21/c 1'
_symmetry_Int_Tables_number 14
_refine_ls_R_factor_all 0.0269
loop_
_symmetry_equiv_pos_site_id
_symmetry_equiv_pos_as_xyz
1 'x, -y+1/2, z+1/2'
2 '-x, -y, -z'
3 '-x, y+1/2, -z+1/2'
4 'x, y, z'
loop_
_atom_type_symbol
_atom_type_oxidation_number
Sc3+ 3
O2- -2
B3+ 3
Na1+ 1
loop_
_atom_site_label
_atom_site_type_symbol
_atom_site_symmetry_multiplicity
_atom_site_Wyckoff_symbol
_atom_site_fract_x
_atom_site_fract_y
_atom_site_fract_z
_atom_site_B_iso_or_equiv
_atom_site_occupancy
_atom_site_attached_hydrogens
Sc1 Sc3+ 2 b 0.5 0. 0. 0.00372(11) 1 0
O1 O2- 4 e 0.4755(2) 0.08396(12) 0.27296(17) 0.0073(2) 1 0
O2 O2- 4 e -0.0650(2) 0.10637(11) 0.15507(18) 0.0076(2) 1 0
O3 O2- 4 e 0.2676(2) 0.31781(12) 0.29120(18) 0.0086(2) 1 0
B1 B3+ 4 e 0.2264(4) 0.16821(18) 0.2386(2) 0.0052(3) 1 0
Na1 Na1+ 2 c 1. 0. 0.5 0.00806(18) 1 0
Na2 Na1+ 4 e 0.73774(13) 0.33234(8) 0.23583(10) 0.01153(16) 1 0
loop_
_atom_site_aniso_label
_atom_site_aniso_type_symbol
_atom_site_aniso_U_11
_atom_site_aniso_U_22
_atom_site_aniso_U_33
_atom_site_aniso_U_12
_atom_site_aniso_U_13
_atom_site_aniso_U_23
Sc1 Sc3+ 0.00282(19) 0.00312(18) 0.00441(18) -0.00007(12) 0.00150(14)
-0.00011(12)
O1 O2- 0.0057(5) 0.0083(5) 0.0072(5) 0.0011(4) 0.0030(4) -0.0006(4)
O2 O2- 0.0054(5) 0.0077(5) 0.0087(5) -0.0022(4) 0.0033(4) -0.0023(4)
O3 O2- 0.0084(5) 0.0047(5) 0.0104(5) -0.0016(4) 0.0038(4) -0.0021(4)
B1 B3+ 0.0066(7) 0.0054(7) 0.0039(7) -0.0007(5) 0.0032(6) -0.0007(5)
Na1 Na1+ 0.0061(4) 0.0092(4) 0.0065(4) 0.0002(3) 0.0020(3) -0.0004(3)
Na2 Na1+ 0.0100(3) 0.0111(3) 0.0143(3) 0.0014(2) 0.0072(3) -0.0017(2)
#End of TTdata_262733-ICSD