
#(C) 2019 by FIZ Karlsruhe - Leibniz Institute for Information Infrastructure.  All rights reserved.
data_262814-ICSD
_database_code_ICSD 262814
_audit_creation_date 2012-08-01
_chemical_name_systematic 'Trisodium dicobalt arsenate diarsenate'
_chemical_formula_structural 'Na3 Co2 (As O4) (As2 O7)'
_chemical_formula_sum 'As3 Co2 Na3 O11'
_exptl_crystal_density_diffrn 4.05
_cell_measurement_temperature 293.
_publ_section_title 'Na3 Co2 (As O4) (As2 O7): a new sodium cobalt arsenate'
loop_
_citation_id
_citation_journal_full
_citation_year
_citation_journal_volume
_citation_page_first
_citation_page_last
_citation_journal_id_ASTM
primary 'Acta Crystallographica, Section E: Structure Reports Online' 2012 68
i58 i58 ACSEBH
loop_
_publ_author_name
'Guesmi, A.'
'Driss, A.'
_cell_length_a 10.484(3)
_cell_length_b 16.309(2)
_cell_length_c 6.5310(10)
_cell_angle_alpha 90.
_cell_angle_beta 120.40(2)
_cell_angle_gamma 90.
_cell_volume 963.16
_cell_formula_units_Z 4
_symmetry_space_group_name_H-M 'C 1 2/m 1'
_symmetry_Int_Tables_number 12
_refine_ls_R_factor_all 0.0268
loop_
_symmetry_equiv_pos_site_id
_symmetry_equiv_pos_as_xyz
1 '-x, y, -z'
2 '-x, -y, -z'
3 'x, -y, z'
4 'x, y, z'
5 '-x+1/2, y+1/2, -z'
6 '-x+1/2, -y+1/2, -z'
7 'x+1/2, -y+1/2, z'
8 'x+1/2, y+1/2, z'
loop_
_atom_type_symbol
_atom_type_oxidation_number
Co2+ 2
As5+ 5
O2- -2
Na1+ 1
loop_
_atom_site_label
_atom_site_type_symbol
_atom_site_symmetry_multiplicity
_atom_site_Wyckoff_symbol
_atom_site_fract_x
_atom_site_fract_y
_atom_site_fract_z
_atom_site_B_iso_or_equiv
_atom_site_occupancy
_atom_site_attached_hydrogens
Co1 Co2+ 4 g 0.5 0.32196(5) 1. 0.0091(2) 1 0
Co2 Co2+ 4 i 0.29864(9) 0.5 0.08408(15) 0.0090(2) 1 0
As1 As5+ 4 i 0.38970(6) 0.5 0.67693(11) 0.00692(16) 1 0
As2 As5+ 8 j 0.11973(5) 0.33430(3) 0.76867(8) 0.00892(14) 1 0
O1 O2- 8 j 0.5206(4) 0.2480(2) 0.7535(6) 0.0219(8) 1 0
O2 O2- 8 j 0.2686(3) 0.3079(2) 0.7525(6) 0.0173(7) 1 0
O3 O2- 4 i 0.2608(5) 0.5 0.7550(8) 0.0097(9) 1 0
O4 O2- 8 j 0.1460(3) 0.40124(19) 0.9821(6) 0.0136(6) 1 0
O5 O2- 4 h 0. 0.3884(3) 0.5 0.0133(9) 1 0
O6 O2- 8 j 0.5077(3) 0.41858(19) 0.7766(6) 0.0126(6) 1 0
O7 O2- 4 i 0.2869(5) 0.5 0.3808(8) 0.0193(11) 1 0
Na1 Na1+ 8 j 0.1740(18) 0.1692(4) 0.5940(15) 0.032(2) 0.72(3) 0
Na2 Na1+ 8 j 0.225(3) 0.1686(13) 0.617(4) 0.032(2) 0.28(3) 0
Na3 Na1+ 4 i 0.0488(3) 0.5 0.2908(8) 0.0353(11) 0.940(6) 0
Na4 Na1+ 4 i -0.021(6) 0.5 -0.054(13) 0.0353(11) 0.060(6) 0
loop_
_atom_site_aniso_label
_atom_site_aniso_type_symbol
_atom_site_aniso_U_11
_atom_site_aniso_U_22
_atom_site_aniso_U_33
_atom_site_aniso_U_12
_atom_site_aniso_U_13
_atom_site_aniso_U_23
Co1 Co2+ 0.0097(4) 0.0075(4) 0.0088(4) 0. 0.0037(3) 0.
Co2 Co2+ 0.0094(4) 0.0105(4) 0.0067(4) 0. 0.0038(3) 0.
As1 As5+ 0.0077(3) 0.0073(3) 0.0047(3) 0. 0.0023(2) 0.
As2 As5+ 0.0091(2) 0.0071(2) 0.0073(2) -0.00090(15) 0.00172(18) 0.00007(17)
O1 O2- 0.0297(19) 0.0157(17) 0.015(2) 0.0132(15) 0.0073(16) -0.0024(15)
O2 O2- 0.0091(14) 0.0211(18) 0.0157(18) 0.0020(13) 0.0018(14) -0.0030(14)
O3 O2- 0.0093(19) 0.015(2) 0.008(2) 0. 0.0072(18) 0.
O4 O2- 0.0163(14) 0.0152(15) 0.0089(15) -0.0044(13) 0.0061(13) -0.0053(14)
O5 O2- 0.0128(19) 0.011(2) 0.008(2) 0. -0.0008(18) 0.
O6 O2- 0.0114(13) 0.0098(14) 0.0158(16) 0.0014(12) 0.0064(13) 0.0017(13)
O7 O2- 0.014(2) 0.040(3) 0.004(2) 0. 0.005(2) 0.
Na1 Na1+ 0.047(6) 0.0192(12) 0.021(2) 0.012(3) 0.011(4) -0.0034(12)
Na2 Na1+ 0.047(6) 0.0192(12) 0.021(2) 0.012(3) 0.011(4) -0.0034(12)
Na3 Na1+ 0.0179(15) 0.0196(17) 0.059(3) 0. 0.0126(18) 0.
Na4 Na1+ 0.0179(15) 0.0196(17) 0.059(3) 0. 0.0126(18) 0.
#End of TTdata_262814-ICSD