
#(C) 2019 by FIZ Karlsruhe - Leibniz Institute for Information Infrastructure.  All rights reserved.
data_263475-ICSD
_database_code_ICSD 263475
_audit_creation_date 2018-08-01
_chemical_name_systematic
'Calcium sodium aluminium silicate (0.75/0.25/1.75/2.25)'
_chemical_formula_structural 'Ca0.75 Na0.25 Al1.75 Si2.25 O8'
_chemical_formula_sum 'Al1.75 Ca0.75 Na0.25 O8 Si2.25'
_chemical_name_structure_type Feldspar#-(TC,I1-,i28)-Bytownite
_chemical_name_mineral Plagioclase
_exptl_crystal_density_diffrn 2.73
_cell_measurement_temperature 100.
_publ_section_title

;
Revisiting the I anti 1 structures of high-temperature Ca-rich plagioclase
feldspar - a single-crystal neutron and X-ray diffraction study
;
loop_
_citation_id
_citation_journal_full
_citation_year
_citation_journal_volume
_citation_page_first
_citation_page_last
_citation_journal_id_ASTM
primary

;
Acta Crystallographica, Section B: Structural Science, Crystal Engineering and
Materials
; 2018 74 152 164 ACSBDA
loop_
_publ_author_name
'Jin, Shiyun'
'Wang, Xiaoping'
'Xu, Huifang'
_cell_length_a 8.16520(10)
_cell_length_b 12.86330(10)
_cell_length_c 14.18320(10)
_cell_angle_alpha 93.4685(10)
_cell_angle_beta 116.0729(11)
_cell_angle_gamma 90.7300(7)
_cell_volume 1334.34
_cell_formula_units_Z 8
_symmetry_space_group_name_H-M 'I -1'
_symmetry_Int_Tables_number 2
_refine_ls_R_factor_all 0.03
loop_
_symmetry_equiv_pos_site_id
_symmetry_equiv_pos_as_xyz
1 '-x, -y, -z'
2 'x, y, z'
3 '-x+1/2, -y+1/2, -z+1/2'
4 'x+1/2, y+1/2, z+1/2'
loop_
_atom_type_symbol
_atom_type_oxidation_number
Ca2+ 2
Na1+ 1
Ca2+ 2
Na1+ 1
Ca2+ 2
Na1+ 1
Ca2+ 2
Na1+ 1
Si4+ 4
Al3+ 3
Si4+ 4
Al3+ 3
Si4+ 4
Al3+ 3
Si4+ 4
Al3+ 3
Si4+ 4
Al3+ 3
Si4+ 4
O2- -2
loop_
_atom_site_label
_atom_site_type_symbol
_atom_site_symmetry_multiplicity
_atom_site_Wyckoff_symbol
_atom_site_fract_x
_atom_site_fract_y
_atom_site_fract_z
_atom_site_B_iso_or_equiv
_atom_site_occupancy
_atom_site_attached_hydrogens
Ca1 Ca2+ 4 i 0.77466(11) -0.46468(6) -0.45536(7) 0.0119(3) 0.3524 0
Na1 Na1+ 4 i 0.77466(11) -0.46468(6) -0.45536(7) 0.0119(3) 0.1184 0
Ca2 Ca2+ 4 i 0.76660(12) -0.51717(8) -0.41255(7) 0.0225(3) 0.3497 0
Na2 Na1+ 4 i 0.76660(12) -0.51717(8) -0.41255(7) 0.0225(3) 0.1795 0
Ca3 Ca2+ 4 i 0.26767(7) 0.02982(4) -0.45294(5) 0.0130(2) 0.5953 0
Na3 Na1+ 4 i 0.26767(7) 0.02982(4) -0.45294(5) 0.0130(2) 0.1528 0
Ca4 Ca2+ 4 i 0.2634(2) 0.99215(17) -0.41773(14) 0.0153(6) 0.2026 0
Na4 Na1+ 4 i 0.2634(2) 0.99215(17) -0.41773(14) 0.0153(6) 0.0493 0
Si1 Si4+ 4 i -0.50764(6) 0.34088(3) -0.60451(4) 0.00750(16) 0.913 0
Al1 Al3+ 4 i -0.50764(6) 0.34088(3) -0.60451(4) 0.00750(16) 0.087 0
Al2 Al3+ 4 i -0.50002(7) 0.31539(3) -0.38160(4) 0.00771(17) 0.7967 0
Si2 Si4+ 4 i -0.50002(7) 0.31539(3) -0.38160(4) 0.00771(17) 0.2033 0
Al3 Al3+ 4 i 0.00356(7) 0.16417(3) -0.38931(4) 0.00749(17) 0.8802 0
Si3 Si4+ 4 i 0.00356(7) 0.16417(3) -0.38931(4) 0.00749(17) 0.1198 0
Si4 Si4+ 4 i 0.00503(6) 0.81730(3) -0.38712(3) 0.00735(16) 0.9021 0
Al4 Al3+ 4 i 0.00503(6) 0.81730(3) -0.38712(3) 0.00735(16) 0.0979 0
Al5 Al3+ 4 i -0.81294(6) 0.61096(3) -0.34265(4) 0.00832(17) 0.7672 0
Si5 Si4+ 4 i -0.81294(6) 0.61096(3) -0.34265(4) 0.00832(17) 0.2328 0
Si6 Si4+ 4 i -0.82324(6) 0.38112(3) -0.31884(4) 0.00835(16) 0.9591 0
Al6 Al3+ 4 i -0.82324(6) 0.38112(3) -0.31884(4) 0.00835(16) 0.0409 0
Si7 Si4+ 4 i -0.32129(6) 0.10602(3) -0.34176(4) 0.00886(16) 0.9475 0
Al7 Al3+ 4 i -0.32129(6) 0.10602(3) -0.34176(4) 0.00886(16) 0.0524 0
Al8 Al3+ 4 i -0.81759(6) 0.37571(3) -0.82335(4) 0.00756(17) 0.7777 0
Si8 Si4+ 4 i -0.81759(6) 0.37571(3) -0.82335(4) 0.00756(17) 0.2223 0
O1 O2- 4 i 0.50868(18) -0.37300(9) -0.50897(9) 0.0152(5) 1 0
O2 O2- 4 i -0.00422(18) 0.12649(9) -0.51179(9) 0.0168(5) 1 0
O3 O2- 4 i 0.42308(16) 0.00968(8) -0.13948(9) 0.0102(4) 1 0
O4 O2- 4 i 0.57406(16) -0.00880(8) -0.36236(9) 0.0103(4) 1 0
O5 O2- 4 i 0.31902(17) -0.39933(9) -0.40933(10) 0.0157(5) 1 0
O6 O2- 4 i 0.18980(18) 0.14633(10) -0.12774(12) 0.0229(6) 1 0
O7 O2- 4 i 0.19737(17) -0.10113(9) -0.59453(11) 0.0165(5) 1 0
O8 O2- 4 i 0.18063(18) 0.14568(10) -0.61507(12) 0.0210(5) 1 0
O9 O2- 4 i 0.51221(16) -0.21850(9) -0.36314(9) 0.0125(4) 1 0
O10 O2- 4 i 0.49096(16) -0.18136(9) -0.60776(9) 0.0134(4) 1 0
O11 O2- 4 i 0.48603(16) 0.20596(9) -0.14759(9) 0.0120(4) 1 0
O12 O2- 4 i -0.00885(17) 0.30890(9) -0.60050(9) 0.0145(4) 1 0
O13 O2- 4 i 0.80836(17) -0.10686(9) -0.18852(10) 0.0145(4) 1 0
O14 O2- 4 i 0.19732(18) -0.13182(10) -0.78139(11) 0.0195(5) 1 0
O15 O2- 4 i 0.20326(17) 0.10407(9) -0.30884(10) 0.0160(4) 1 0
O16 O2- 4 i -0.18492(19) 0.13763(10) -0.71371(11) 0.0226(5) 1 0
loop_
_atom_site_aniso_label
_atom_site_aniso_type_symbol
_atom_site_aniso_U_11
_atom_site_aniso_U_22
_atom_site_aniso_U_33
_atom_site_aniso_U_12
_atom_site_aniso_U_13
_atom_site_aniso_U_23
Ca1 Ca2+ 0.0086(4) 0.0127(4) 0.0125(4) 0.0034(3) 0.0034(3) -0.0034(3)
Na1 Na1+ 0.0086(4) 0.0127(4) 0.0125(4) 0.0034(3) 0.0034(3) -0.0034(3)
Ca2 Ca2+ 0.0111(4) 0.0388(5) 0.0176(4) -0.0067(3) 0.0085(4) -0.0150(4)
Na2 Na1+ 0.0111(4) 0.0388(5) 0.0176(4) -0.0067(3) 0.0085(4) -0.0150(4)
Ca3 Ca2+ 0.0092(3) 0.0144(3) 0.0130(3) 0.00315(20) 0.0035(2) -0.0052(2)
Na3 Na1+ 0.0092(3) 0.0144(3) 0.0130(3) 0.00315(20) 0.0035(2) -0.0052(2)
Ca4 Ca2+ 0.0075(7) 0.0339(10) 0.0063(8) -0.0016(7) 0.0053(6) -0.0024(7)
Na4 Na1+ 0.0075(7) 0.0339(10) 0.0063(8) -0.0016(7) 0.0053(6) -0.0024(7)
Si1 Si4+ 0.0089(2) 0.00718(19) 0.0072(2) -0.00108(15) 0.00435(18) 0.00028(15)
Al1 Al3+ 0.0089(2) 0.00718(19) 0.0072(2) -0.00108(15) 0.00435(18) 0.00028(15)
Al2 Al3+ 0.0096(2) 0.0074(2) 0.0065(2) 0.00234(16) 0.00393(19) -0.00019(16)
Si2 Si4+ 0.0096(2) 0.0074(2) 0.0065(2) 0.00234(16) 0.00393(19) -0.00019(16)
Al3 Al3+ 0.0088(2) 0.0068(2) 0.0075(2) -0.00099(16) 0.00408(19) 0.00066(16)
Si3 Si4+ 0.0088(2) 0.0068(2) 0.0075(2) -0.00099(16) 0.00408(19) 0.00066(16)
Si4 Si4+ 0.0087(2) 0.00783(20) 0.0058(2) 0.00273(15) 0.00347(18) 0.00017(15)
Al4 Al3+ 0.0087(2) 0.00783(20) 0.0058(2) 0.00273(15) 0.00347(18) 0.00017(15)
Al5 Al3+ 0.0085(2) 0.0051(2) 0.0111(2) 0.00043(16) 0.0041(2) 0.00054(17)
Si5 Si4+ 0.0085(2) 0.0051(2) 0.0111(2) 0.00043(16) 0.0041(2) 0.00054(17)
Si6 Si4+ 0.0085(2) 0.00532(19) 0.0105(2) 0.00079(15) 0.00345(18) 0.00121(15)
Al6 Al3+ 0.0085(2) 0.00532(19) 0.0105(2) 0.00079(15) 0.00345(18) 0.00121(15)
Si7 Si4+ 0.0090(2) 0.00496(19) 0.0123(2) 0.00022(15) 0.00450(19) -0.00063(16)
Al7 Al3+ 0.0090(2) 0.00496(19) 0.0123(2) 0.00022(15) 0.00450(19) -0.00063(16)
Al8 Al3+ 0.0079(2) 0.0060(2) 0.0092(2) 0.00030(16) 0.00408(19) 0.00126(16)
Si8 Si4+ 0.0079(2) 0.0060(2) 0.0092(2) 0.00030(16) 0.00408(19) 0.00126(16)
O1 O2- 0.0246(7) 0.0147(5) 0.0088(6) 0.0012(5) 0.0096(5) 0.0005(4)
O2 O2- 0.0284(7) 0.0166(6) 0.0095(6) 0.0034(5) 0.0118(6) 0.0023(5)
O3 O2- 0.0118(6) 0.0083(5) 0.0107(6) 0.0024(4) 0.0049(5) 0.0028(4)
O4 O2- 0.0115(6) 0.0075(5) 0.0107(6) -0.0015(4) 0.0039(5) 0.0006(4)
O5 O2- 0.0149(6) 0.0111(5) 0.0238(7) -0.0022(4) 0.0117(6) -0.0025(5)
O6 O2- 0.0170(7) 0.0146(6) 0.0423(9) -0.0012(5) 0.0189(7) -0.0062(6)
O7 O2- 0.0171(6) 0.0095(5) 0.0280(7) -0.0007(4) 0.0149(6) -0.0019(5)
O8 O2- 0.0177(7) 0.0155(6) 0.0358(8) 0.0014(5) 0.0179(6) -0.0027(5)
O9 O2- 0.0133(6) 0.0107(5) 0.0137(6) -0.0015(4) 0.0064(5) 0.0006(4)
O10 O2- 0.0121(6) 0.0132(5) 0.0122(6) 0.0041(4) 0.0032(5) -0.0013(4)
O11 O2- 0.0129(6) 0.0109(5) 0.0113(6) -0.0029(4) 0.0049(5) -0.0004(4)
O12 O2- 0.0165(6) 0.0114(5) 0.0117(6) 0.0037(4) 0.0030(5) -0.0017(4)
O13 O2- 0.0141(6) 0.0115(5) 0.0122(6) 0.0007(4) 0.0006(5) 0.0007(4)
O14 O2- 0.0154(6) 0.0135(6) 0.0174(7) 0.0028(5) -0.0029(5) -0.0055(5)
O15 O2- 0.0163(6) 0.0100(5) 0.0127(6) 0.0007(4) -0.0018(5) 0.0003(4)
O16 O2- 0.0182(7) 0.0169(6) 0.0188(7) 0.0042(5) -0.0040(6) -0.0047(5)
#End of TTdata_263475-ICSD