
#(C) 2019 by FIZ Karlsruhe - Leibniz Institute for Information Infrastructure.  All rights reserved.
data_263473-ICSD
_database_code_ICSD 263473
_audit_creation_date 2018-08-01
_chemical_name_systematic
'Calcium sodium aluminium silicate (0.67/0.33/1.67/2.33)'
_chemical_formula_structural 'Ca0.67 Na0.33 Al1.67 Si2.33 O8'
_chemical_formula_sum 'Al1.67 Ca0.67 Na0.33 O8 Si2.33'
_chemical_name_mineral Plagioclase
_exptl_crystal_density_diffrn 2.72
_cell_measurement_temperature 100.
_publ_section_title

;
Revisiting the I anti 1 structures of high-temperature Ca-rich plagioclase
feldspar - a single-crystal neutron and X-ray diffraction study
;
loop_
_citation_id
_citation_journal_full
_citation_year
_citation_journal_volume
_citation_page_first
_citation_page_last
_citation_journal_id_ASTM
primary

;
Acta Crystallographica, Section B: Structural Science, Crystal Engineering and
Materials
; 2018 74 152 164 ACSBDA
loop_
_publ_author_name
'Jin, Shiyun'
'Wang, Xiaoping'
'Xu, Huifang'
_cell_length_a 8.16180(10)
_cell_length_b 12.8632(2)
_cell_length_c 14.1898(2)
_cell_angle_alpha 93.5211(15)
_cell_angle_beta 116.1167(11)
_cell_angle_gamma 90.5754(9)
_cell_volume 1333.97
_cell_formula_units_Z 8
_symmetry_space_group_name_H-M 'I -1'
_symmetry_Int_Tables_number 2
_refine_ls_R_factor_all 0.0553
loop_
_symmetry_equiv_pos_site_id
_symmetry_equiv_pos_as_xyz
1 '-x, -y, -z'
2 'x, y, z'
3 '-x+1/2, -y+1/2, -z+1/2'
4 'x+1/2, y+1/2, z+1/2'
loop_
_atom_type_symbol
_atom_type_oxidation_number
Ca2+ 2
Na1+ 1
Ca2+ 2
Na1+ 1
Ca2+ 2
Na1+ 1
Ca2+ 2
Na1+ 1
Si4+ 4
Al3+ 3
Si4+ 4
Al3+ 3
Si4+ 4
Al3+ 3
Si4+ 4
Al3+ 3
Si4+ 4
Al3+ 3
Si4+ 4
O2- -2
loop_
_atom_site_label
_atom_site_type_symbol
_atom_site_symmetry_multiplicity
_atom_site_Wyckoff_symbol
_atom_site_fract_x
_atom_site_fract_y
_atom_site_fract_z
_atom_site_B_iso_or_equiv
_atom_site_occupancy
_atom_site_attached_hydrogens
Ca1 Ca2+ 4 i 0.77448(13) -0.46559(9) -0.45457(9) 0.0137(3) 0.3189 0
Na1 Na1+ 4 i 0.77448(13) -0.46559(9) -0.45457(9) 0.0137(3) 0.1784 0
Ca2 Ca2+ 4 i 0.76680(14) -0.51838(13) -0.41338(11) 0.0248(4) 0.3211 0
Na2 Na1+ 4 i 0.76680(14) -0.51838(13) -0.41338(11) 0.0248(4) 0.1816 0
Ca3 Ca2+ 4 i 0.26827(9) 0.03034(6) -0.45311(6) 0.01237(18) 0.499 0
Na3 Na1+ 4 i 0.26827(9) 0.03034(6) -0.45311(6) 0.01237(18) 0.236 0
Ca4 Ca2+ 4 i 0.2633(2) 0.9912(2) -0.41988(17) 0.0185(6) 0.201 0
Na4 Na1+ 4 i 0.2633(2) 0.9912(2) -0.41988(17) 0.0185(6) 0.064 0
Si1 Si4+ 4 i -0.50760(6) 0.34007(3) -0.60492(3) 0.00576(10) 0.8319 0
Al1 Al3+ 4 i -0.50760(6) 0.34007(3) -0.60492(3) 0.00576(10) 0.1681 0
Al2 Al3+ 4 i -0.49927(6) 0.31565(4) -0.38197(4) 0.00601(12) 0.7454 0
Si2 Si4+ 4 i -0.49927(6) 0.31565(4) -0.38197(4) 0.00601(12) 0.2546 0
Al3 Al3+ 4 i 0.00397(6) 0.16424(4) -0.39011(4) 0.00609(12) 0.7538 0
Si3 Si4+ 4 i 0.00397(6) 0.16424(4) -0.39011(4) 0.00609(12) 0.2462 0
Si4 Si4+ 4 i 0.00482(6) 0.81719(3) -0.38663(3) 0.00568(10) 0.8691 0
Al4 Al3+ 4 i 0.00482(6) 0.81719(3) -0.38663(3) 0.00568(10) 0.1309 0
Al5 Al3+ 4 i -0.81284(6) 0.61060(4) -0.34245(4) 0.00619(11) 0.6471 0
Si5 Si4+ 4 i -0.81284(6) 0.61060(4) -0.34245(4) 0.00619(11) 0.3528 0
Si6 Si4+ 4 i -0.82232(6) 0.38081(3) -0.31926(4) 0.00594(11) 0.858 0
Al6 Al3+ 4 i -0.82232(6) 0.38081(3) -0.31926(4) 0.00594(11) 0.142 0
Si7 Si4+ 4 i -0.32011(6) 0.10641(3) -0.34165(4) 0.00682(11) 0.9368 0
Al7 Al3+ 4 i -0.32011(6) 0.10641(3) -0.34165(4) 0.00682(11) 0.0632 0
Al8 Al3+ 4 i -0.81759(6) 0.37627(4) -0.82306(4) 0.00585(11) 0.6895 0
Si8 Si4+ 4 i -0.81759(6) 0.37627(4) -0.82306(4) 0.00585(11) 0.3105 0
O1 O2- 4 i 0.5138(3) -0.3716(2) -0.5083(2) 0.0137(4) 0.801 0
O2 O2- 4 i 0.4880(11) -0.3748(7) -0.5120(8) 0.0077(10) 0.2 0
O3 O2- 4 i -0.01224(16) 0.12628(14) -0.51385(15) 0.0115(3) 0.7063 0
O4 O2- 4 i 0.0222(4) 0.1292(4) -0.5054(4) 0.0132(6) 0.2937 0
O5 O2- 4 i 0.42162(4) 0.00955(3) -0.13947(3) 0.00870(9) 1 0
O6 O2- 4 i 0.57576(4) -0.00865(2) -0.36194(3) 0.00880(9) 1 0
O7 O2- 4 i 0.3140(7) -0.3982(4) -0.4152(2) 0.0096(5) 0.5742 0
O8 O2- 4 i 0.3260(9) -0.3991(5) -0.3977(3) 0.0102(7) 0.4258 0
O9 O2- 4 i 0.1805(3) 0.15010(19) -0.13905(13) 0.0126(4) 0.5164 0
O10 O2- 4 i 0.1967(3) 0.14317(19) -0.11566(14) 0.0112(4) 0.4836 0
O11 O2- 4 i 0.1939(5) -0.0997(3) -0.6008(3) 0.0098(4) 0.6019 0
O12 O2- 4 i 0.1972(9) -0.1050(6) -0.5862(5) 0.0119(8) 0.3981 0
O13 O2- 4 i 0.1856(2) 0.14444(14) -0.60969(10) 0.0114(3) 0.6588 0
O14 O2- 4 i 0.1696(5) 0.1505(3) -0.6333(2) 0.0140(7) 0.3412 0
O15 O2- 4 i 0.51231(5) -0.21724(3) -0.36320(3) 0.01162(10) 1 0
O16 O2- 4 i 0.48931(5) -0.18211(3) -0.60781(3) 0.01254(10) 1 0
O17 O2- 4 i 0.48576(5) 0.20628(3) -0.14591(3) 0.01184(10) 1 0
O18 O2- 4 i -0.01048(5) 0.30943(3) -0.60190(3) 0.01364(10) 1 0
O19 O2- 4 i 0.8119(17) -0.1104(8) -0.1901(7) 0.0123(8) 0.5023 0
O20 O2- 4 i 0.8018(17) -0.1046(8) -0.1884(8) 0.0114(8) 0.4977 0
O21 O2- 4 i 0.2004(3) -0.13102(19) -0.78702(16) 0.0116(3) 0.6562 0
O22 O2- 4 i 0.1859(6) -0.1338(3) -0.7729(3) 0.0111(5) 0.3438 0
O23 O2- 4 i 0.2089(4) 0.1046(2) -0.3129(2) 0.0082(3) 0.5845 0
O24 O2- 4 i 0.1935(6) 0.1052(4) -0.3020(3) 0.0098(5) 0.4155 0
O25 O2- 4 i -0.1810(2) 0.13842(13) -0.71770(11) 0.0131(2) 0.7172 0
O26 O2- 4 i -0.1974(5) 0.1319(3) -0.7021(3) 0.0124(6) 0.2828 0
loop_
_atom_site_aniso_label
_atom_site_aniso_type_symbol
_atom_site_aniso_U_11
_atom_site_aniso_U_22
_atom_site_aniso_U_33
_atom_site_aniso_U_12
_atom_site_aniso_U_13
_atom_site_aniso_U_23
Ca1 Ca2+ 0.0070(3) 0.0170(4) 0.0122(4) 0.0039(3) 0.0004(3) -0.0056(3)
Na1 Na1+ 0.0070(3) 0.0170(4) 0.0122(4) 0.0039(3) 0.0004(3) -0.0056(3)
Ca2 Ca2+ 0.0071(3) 0.0465(8) 0.0182(5) -0.0079(4) 0.0063(3) -0.0202(5)
Na2 Na1+ 0.0071(3) 0.0465(8) 0.0182(5) -0.0079(4) 0.0063(3) -0.0202(5)
Ca3 Ca2+ 0.0077(2) 0.0158(3) 0.0108(3) 0.00294(18) 0.00199(19) -0.00349(19)
Na3 Na1+ 0.0077(2) 0.0158(3) 0.0108(3) 0.00294(18) 0.00199(19) -0.00349(19)
Ca4 Ca2+ 0.0027(5) 0.0426(13) 0.0074(7) -0.0017(6) 0.0015(5) -0.0123(7)
Na4 Na1+ 0.0027(5) 0.0426(13) 0.0074(7) -0.0017(6) 0.0015(5) -0.0123(7)
Si1 Si4+ 0.00520(12) 0.00795(15) 0.00394(15) -0.00190(10) 0.00190(11)
0.00029(10)
Al1 Al3+ 0.00520(12) 0.00795(15) 0.00394(15) -0.00190(10) 0.00190(11)
0.00029(10)
Al2 Al3+ 0.00596(14) 0.00843(16) 0.00342(17) 0.00222(12) 0.00192(13)
-0.00019(11)
Si2 Si4+ 0.00596(14) 0.00843(16) 0.00342(17) 0.00222(12) 0.00192(13)
-0.00019(11)
Al3 Al3+ 0.00544(14) 0.00777(16) 0.00462(17) -0.00189(12) 0.00183(13)
0.00063(11)
Si3 Si4+ 0.00544(14) 0.00777(16) 0.00462(17) -0.00189(12) 0.00183(13)
0.00063(11)
Si4 Si4+ 0.00548(13) 0.00805(14) 0.00307(15) 0.00257(10) 0.00150(11)
-0.00008(10)
Al4 Al3+ 0.00548(13) 0.00805(14) 0.00307(15) 0.00257(10) 0.00150(11)
-0.00008(10)
Al5 Al3+ 0.00469(13) 0.00580(15) 0.00692(18) 0.00024(11) 0.00154(13) 0.00025(11)
Si5 Si4+ 0.00469(13) 0.00580(15) 0.00692(18) 0.00024(11) 0.00154(13) 0.00025(11)
Si6 Si4+ 0.00483(12) 0.00478(13) 0.00700(17) 0.00005(10) 0.00143(12) 0.00108(10)
Al6 Al3+ 0.00483(12) 0.00478(13) 0.00700(17) 0.00005(10) 0.00143(12) 0.00108(10)
Si7 Si4+ 0.00499(12) 0.00562(13) 0.00843(17) 0.00017(10) 0.00183(12)
-0.00073(10)
Al7 Al3+ 0.00499(12) 0.00562(13) 0.00843(17) 0.00017(10) 0.00183(12)
-0.00073(10)
Al8 Al3+ 0.00431(13) 0.00664(15) 0.00637(18) -0.00013(11) 0.00204(13)
0.00137(11)
Si8 Si4+ 0.00431(13) 0.00664(15) 0.00637(18) -0.00013(11) 0.00204(13)
0.00137(11)
O1 O2- 0.0168(7) 0.0179(3) 0.0090(3) -0.0018(4) 0.0083(5) -0.0003(2)
O2 O2- 0.0100(17) 0.0116(14) 0.0056(11) 0.0071(13) 0.0065(12) 0.0047(10)
O3 O2- 0.0129(5) 0.0163(3) 0.0072(4) 0.0041(4) 0.0061(4) 0.0029(2)
O4 O2- 0.0073(9) 0.0269(8) 0.0056(8) -0.0026(8) 0.0032(8) 0.0017(5)
O5 O2- 0.00773(10) 0.00844(11) 0.00960(13) 0.00145(8) 0.00326(10) 0.00264(8)
O6 O2- 0.00764(10) 0.00825(11) 0.00927(13) -0.00187(8) 0.00267(10) 0.00040(8)
O7 O2- 0.0095(5) 0.0105(3) 0.0085(9) -0.0033(3) 0.0042(7) -0.0022(6)
O8 O2- 0.0107(9) 0.0129(4) 0.0078(12) -0.0037(5) 0.0051(10) -0.0019(9)
O9 O2- 0.0126(4) 0.0125(4) 0.0152(7) 0.0034(3) 0.0083(6) 0.0024(5)
O10 O2- 0.0100(4) 0.0126(5) 0.0128(7) 0.0003(3) 0.0070(5) -0.0003(4)
O11 O2- 0.0109(3) 0.0091(5) 0.0137(8) -0.0011(3) 0.0094(5) 0.0008(5)
O12 O2- 0.0170(6) 0.0094(7) 0.0159(14) -0.0012(5) 0.0135(9) 0.0013(8)
O13 O2- 0.0089(3) 0.0132(3) 0.0143(5) 0.00279(20) 0.0070(4) 0.0013(3)
O14 O2- 0.0162(8) 0.0169(6) 0.0138(10) 0.0043(5) 0.0108(9) 0.0030(7)
O15 O2- 0.01148(12) 0.01217(13) 0.01153(15) -0.00165(10) 0.00545(11) 0.00062(9)
O16 O2- 0.00997(12) 0.01523(14) 0.00923(15) 0.00544(10) 0.00145(11) -0.00090(10)
O17 O2- 0.01030(12) 0.01172(13) 0.01197(15) -0.00399(9) 0.00368(11) 0.00032(9)
O18 O2- 0.01477(13) 0.01254(13) 0.00960(15) 0.00452(10) 0.00205(11) -0.00241(10)
O19 O2- 0.0089(7) 0.0142(19) 0.0085(9) 0.0019(9) -0.0012(7) 0.0020(9)
O20 O2- 0.0108(14) 0.0074(5) 0.0120(8) 0.0013(8) 0.0015(8) -0.0005(4)
O21 O2- 0.0088(3) 0.0141(3) 0.0077(5) 0.0018(2) 0.0003(3) -0.0037(3)
O22 O2- 0.0106(7) 0.0115(5) 0.0075(9) -0.0014(5) 0.0012(5) -0.0032(6)
O23 O2- 0.0088(5) 0.0094(3) 0.0045(5) 0.0003(3) 0.0012(3) 0.0005(3)
O24 O2- 0.0089(6) 0.0132(4) 0.0063(8) 0.0011(4) 0.0025(4) 0.0003(5)
O25 O2- 0.0112(3) 0.0147(3) 0.0086(4) 0.0002(2) 0.0002(2) -0.0006(2)
O26 O2- 0.0074(6) 0.0176(9) 0.0085(10) 0.0029(6) 0.0004(5) -0.0026(7)
#End of TTdata_263473-ICSD