
#(C) 2019 by FIZ Karlsruhe - Leibniz Institute for Information Infrastructure.  All rights reserved.
data_263480-ICSD
_database_code_ICSD 263480
_audit_creation_date 2018-08-01
_chemical_name_systematic
'Calcium sodium aluminium silicate (0.66/0.34/1.66/2.34)'
_chemical_formula_structural 'Ca0.66 Na0.34 Al1.66 Si2.34 O8'
_chemical_formula_sum 'Al1.66 Ca0.66 Na0.34 O8 Si2.34'
_chemical_name_structure_type Feldspar#-(TC,I1-,i28)-Bytownite
_chemical_name_mineral Plagioclase
_exptl_crystal_density_diffrn 2.72
_cell_measurement_temperature 100.
_publ_section_title

;
Revisiting the I anti 1 structures of high-temperature Ca-rich plagioclase
feldspar - a single-crystal neutron and X-ray diffraction study
;
loop_
_citation_id
_citation_journal_full
_citation_year
_citation_journal_volume
_citation_page_first
_citation_page_last
_citation_journal_id_ASTM
primary

;
Acta Crystallographica, Section B: Structural Science, Crystal Engineering and
Materials
; 2018 74 152 164 ACSBDA
loop_
_publ_author_name
'Jin, Shiyun'
'Wang, Xiaoping'
'Xu, Huifang'
_cell_length_a 8.1635(2)
_cell_length_b 12.8615(2)
_cell_length_c 14.1936(3)
_cell_angle_alpha 93.5104(19)
_cell_angle_beta 116.124(2)
_cell_angle_gamma 90.5297(13)
_cell_volume 1334.41
_cell_formula_units_Z 8
_symmetry_space_group_name_H-M 'I -1'
_symmetry_Int_Tables_number 2
_refine_ls_R_factor_all 0.0399
loop_
_symmetry_equiv_pos_site_id
_symmetry_equiv_pos_as_xyz
1 '-x, -y, -z'
2 'x, y, z'
3 '-x+1/2, -y+1/2, -z+1/2'
4 'x+1/2, y+1/2, z+1/2'
loop_
_atom_type_symbol
_atom_type_oxidation_number
Ca2+ 2
Na1+ 1
Ca2+ 2
Na1+ 1
Ca2+ 2
Na1+ 1
Ca2+ 2
Na1+ 1
Si4+ 4
Al3+ 3
Si4+ 4
Al3+ 3
Si4+ 4
Al3+ 3
Si4+ 4
Al3+ 3
Si4+ 4
Al3+ 3
Si4+ 4
O2- -2
loop_
_atom_site_label
_atom_site_type_symbol
_atom_site_symmetry_multiplicity
_atom_site_Wyckoff_symbol
_atom_site_fract_x
_atom_site_fract_y
_atom_site_fract_z
_atom_site_B_iso_or_equiv
_atom_site_occupancy
_atom_site_attached_hydrogens
Ca1 Ca2+ 4 i 0.77425(15) -0.46563(9) -0.45425(9) 0.0135(4) 0.3142 0
Na1 Na1+ 4 i 0.77425(15) -0.46563(9) -0.45425(9) 0.0135(4) 0.1672 0
Ca2 Ca2+ 4 i 0.76694(16) -0.51778(12) -0.41336(10) 0.0245(5) 0.3102 0
Na2 Na1+ 4 i 0.76694(16) -0.51778(12) -0.41336(10) 0.0245(5) 0.2084 0
Ca3 Ca2+ 4 i 0.26817(10) 0.02909(6) -0.45180(6) 0.0142(3) 0.4968 0
Na3 Na1+ 4 i 0.26817(10) 0.02909(6) -0.45180(6) 0.0142(3) 0.2546 0
Ca4 Ca2+ 4 i 0.2642(3) 0.9868(2) -0.41625(18) 0.0185(8) 0.1988 0
Na4 Na1+ 4 i 0.2642(3) 0.9868(2) -0.41625(18) 0.0185(8) 0.0498 0
Si1 Si4+ 4 i -0.50755(8) 0.33978(4) -0.60493(4) 0.0074(2) 0.8554 0
Al1 Al3+ 4 i -0.50755(8) 0.33978(4) -0.60493(4) 0.0074(2) 0.1446 0
Al2 Al3+ 4 i -0.49948(8) 0.31559(4) -0.38218(4) 0.0071(2) 0.7626 0
Si2 Si4+ 4 i -0.49948(8) 0.31559(4) -0.38218(4) 0.0071(2) 0.2373 0
Al3 Al3+ 4 i 0.00416(8) 0.16431(4) -0.39014(5) 0.0074(2) 0.7393 0
Si3 Si4+ 4 i 0.00416(8) 0.16431(4) -0.39014(5) 0.0074(2) 0.2607 0
Si4 Si4+ 4 i 0.00471(8) 0.81715(4) -0.38660(4) 0.0070(2) 0.8152 0
Al4 Al3+ 4 i 0.00471(8) 0.81715(4) -0.38660(4) 0.0070(2) 0.1848 0
Al5 Al3+ 4 i -0.81294(8) 0.61053(4) -0.34245(5) 0.0078(2) 0.5537 0
Si5 Si4+ 4 i -0.81294(8) 0.61053(4) -0.34245(5) 0.0078(2) 0.4463 0
Si6 Si4+ 4 i -0.82224(8) 0.38077(4) -0.31944(4) 0.0070(2) 0.7663 0
Al6 Al3+ 4 i -0.82224(8) 0.38077(4) -0.31944(4) 0.0070(2) 0.2337 0
Si7 Si4+ 4 i -0.31968(8) 0.10651(4) -0.34163(4) 0.0085(2) 0.9699 0
Al7 Al3+ 4 i -0.31968(8) 0.10651(4) -0.34163(4) 0.0085(2) 0.0302 0
Al8 Al3+ 4 i -0.81769(8) 0.37635(4) -0.82310(5) 0.0071(2) 0.6711 0
Si8 Si4+ 4 i -0.81769(8) 0.37635(4) -0.82310(5) 0.0071(2) 0.3289 0
O1 O2- 4 i 0.5078(2) -0.37220(12) -0.50916(11) 0.0152(6) 1 0
O2 O2- 4 i -0.0027(2) 0.12738(12) -0.51141(11) 0.0170(6) 1 0
O3 O2- 4 i 0.42148(19) 0.00929(11) -0.13935(11) 0.0103(5) 1 0
O4 O2- 4 i 0.57576(19) -0.00881(11) -0.36219(11) 0.0104(5) 1 0
O5 O2- 4 i 0.3181(2) -0.39820(12) -0.40841(12) 0.0152(6) 1 0
O6 O2- 4 i 0.1889(2) 0.14690(12) -0.12666(14) 0.0216(7) 1 0
O7 O2- 4 i 0.1952(2) -0.10203(12) -0.59465(13) 0.0160(6) 1 0
O8 O2- 4 i 0.1812(2) 0.14634(12) -0.61646(14) 0.0207(7) 1 0
O9 O2- 4 i 0.5121(2) -0.21662(12) -0.36257(11) 0.0135(6) 1 0
O10 O2- 4 i 0.4896(2) -0.18258(12) -0.60772(11) 0.0143(5) 1 0
O11 O2- 4 i 0.4862(2) 0.20643(12) -0.14593(11) 0.0130(5) 1 0
O12 O2- 4 i -0.0105(2) 0.30937(12) -0.60183(11) 0.0150(6) 1 0
O13 O2- 4 i 0.8067(2) -0.10720(11) -0.18947(12) 0.0139(5) 1 0
O14 O2- 4 i 0.1955(2) -0.13216(12) -0.78220(12) 0.0180(6) 1 0
O15 O2- 4 i 0.2024(2) 0.10477(11) -0.30847(12) 0.0152(5) 1 0
O16 O2- 4 i -0.1860(2) 0.13696(13) -0.71421(13) 0.0204(6) 1 0
loop_
_atom_site_aniso_label
_atom_site_aniso_type_symbol
_atom_site_aniso_U_11
_atom_site_aniso_U_22
_atom_site_aniso_U_33
_atom_site_aniso_U_12
_atom_site_aniso_U_13
_atom_site_aniso_U_23
Ca1 Ca2+ 0.0097(5) 0.0153(5) 0.0122(6) 0.0032(4) 0.0023(4) -0.0031(4)
Na1 Na1+ 0.0097(5) 0.0153(5) 0.0122(6) 0.0032(4) 0.0023(4) -0.0031(4)
Ca2 Ca2+ 0.0096(5) 0.0451(8) 0.0171(6) -0.0084(5) 0.0068(5) -0.0170(6)
Na2 Na1+ 0.0096(5) 0.0451(8) 0.0171(6) -0.0084(5) 0.0068(5) -0.0170(6)
Ca3 Ca2+ 0.0075(3) 0.0183(4) 0.0120(4) 0.0032(3) 0.0009(3) -0.0061(3)
Na3 Na1+ 0.0075(3) 0.0183(4) 0.0120(4) 0.0032(3) 0.0009(3) -0.0061(3)
Ca4 Ca2+ 0.0092(10) 0.0437(15) 0.0047(10) -0.0071(10) 0.0058(8) -0.0039(10)
Na4 Na1+ 0.0092(10) 0.0437(15) 0.0047(10) -0.0071(10) 0.0058(8) -0.0039(10)
Si1 Si4+ 0.0082(3) 0.0085(3) 0.0050(3) -0.0022(2) 0.0024(2) 0.0016(2)
Al1 Al3+ 0.0082(3) 0.0085(3) 0.0050(3) -0.0022(2) 0.0024(2) 0.0016(2)
Al2 Al3+ 0.0082(3) 0.0084(3) 0.0040(3) 0.0025(2) 0.0019(2) 0.0011(2)
Si2 Si4+ 0.0082(3) 0.0084(3) 0.0040(3) 0.0025(2) 0.0019(2) 0.0011(2)
Al3 Al3+ 0.0081(3) 0.0078(3) 0.0057(3) -0.0021(2) 0.0024(2) 0.0018(2)
Si3 Si4+ 0.0081(3) 0.0078(3) 0.0057(3) -0.0021(2) 0.0024(2) 0.0018(2)
Si4 Si4+ 0.0080(3) 0.0085(3) 0.0038(3) 0.0025(2) 0.0018(2) 0.0014(2)
Al4 Al3+ 0.0080(3) 0.0085(3) 0.0038(3) 0.0025(2) 0.0018(2) 0.0014(2)
Al5 Al3+ 0.0080(3) 0.0058(3) 0.0085(3) 0.0003(2) 0.0023(2) 0.0017(2)
Si5 Si4+ 0.0080(3) 0.0058(3) 0.0085(3) 0.0003(2) 0.0023(2) 0.0017(2)
Si6 Si4+ 0.0071(3) 0.0047(3) 0.0076(3) 0.0002(2) 0.0015(2) 0.0023(2)
Al6 Al3+ 0.0071(3) 0.0047(3) 0.0076(3) 0.0002(2) 0.0015(2) 0.0023(2)
Si7 Si4+ 0.0085(3) 0.0059(2) 0.0094(3) 0.0001(2) 0.0025(2) 0.0006(2)
Al7 Al3+ 0.0085(3) 0.0059(2) 0.0094(3) 0.0001(2) 0.0025(2) 0.0006(2)
Al8 Al3+ 0.0071(3) 0.0068(3) 0.0068(3) -0.0002(2) 0.0024(2) 0.0023(2)
Si8 Si4+ 0.0071(3) 0.0068(3) 0.0068(3) -0.0002(2) 0.0024(2) 0.0023(2)
O1 O2- 0.0226(9) 0.0175(8) 0.0070(7) 0.0005(6) 0.0078(7) 0.0017(6)
O2 O2- 0.0276(9) 0.0204(8) 0.0065(7) 0.0040(7) 0.0100(7) 0.0048(6)
O3 O2- 0.0111(7) 0.0093(6) 0.0095(7) 0.0007(5) 0.0033(6) 0.0041(5)
O4 O2- 0.0114(7) 0.0086(6) 0.0094(7) -0.0018(5) 0.0027(6) 0.0015(5)
O5 O2- 0.0152(8) 0.0116(7) 0.0201(8) -0.0031(6) 0.0093(7) -0.0005(6)
O6 O2- 0.0173(8) 0.0150(8) 0.0365(10) -0.0020(6) 0.0163(8) -0.0050(7)
O7 O2- 0.0172(8) 0.0110(7) 0.0234(9) -0.0010(6) 0.0122(7) 0.0001(6)
O8 O2- 0.0157(8) 0.0172(8) 0.0324(10) 0.0007(6) 0.0139(8) -0.0024(7)
O9 O2- 0.0141(7) 0.0137(7) 0.0120(8) -0.0028(6) 0.0053(6) 0.0016(6)
O10 O2- 0.0121(7) 0.0166(7) 0.0101(7) 0.0053(6) 0.0011(6) -0.0006(6)
O11 O2- 0.0133(7) 0.0123(7) 0.0108(7) -0.0038(6) 0.0029(6) 0.0017(6)
O12 O2- 0.0172(8) 0.0127(7) 0.0101(7) 0.0043(6) 0.0018(6) -0.0014(6)
O13 O2- 0.0134(7) 0.0121(7) 0.0101(7) -0.0002(6) -0.0004(6) 0.0022(6)
O14 O2- 0.0147(8) 0.0148(7) 0.0141(8) 0.0020(6) -0.0025(6) -0.0034(6)
O15 O2- 0.0155(8) 0.0112(7) 0.0105(7) -0.0008(6) -0.0020(6) 0.0019(6)
O16 O2- 0.0169(8) 0.0178(8) 0.0145(8) 0.0032(6) -0.0037(7) -0.0025(6)
#End of TTdata_263480-ICSD