
#(C) 2019 by FIZ Karlsruhe - Leibniz Institute for Information Infrastructure.  All rights reserved.
data_263472-ICSD
_database_code_ICSD 263472
_audit_creation_date 2018-08-01
_chemical_name_systematic
'Calcium sodium aluminium silicate (0.75/0.25/1.75/2.25)'
_chemical_formula_structural 'Ca0.75 Na0.25 Al1.75 Si2.25 O8'
_chemical_formula_sum 'Al1.75 Ca0.75 Na0.25 O8 Si2.25'
_chemical_name_mineral Plagioclase
_exptl_crystal_density_diffrn 2.73
_cell_measurement_temperature 100.
_publ_section_title

;
Revisiting the I anti 1 structures of high-temperature Ca-rich plagioclase
feldspar - a single-crystal neutron and X-ray diffraction study
;
loop_
_citation_id
_citation_journal_full
_citation_year
_citation_journal_volume
_citation_page_first
_citation_page_last
_citation_journal_id_ASTM
primary

;
Acta Crystallographica, Section B: Structural Science, Crystal Engineering and
Materials
; 2018 74 152 164 ACSBDA
loop_
_publ_author_name
'Jin, Shiyun'
'Wang, Xiaoping'
'Xu, Huifang'
_cell_length_a 8.16520(10)
_cell_length_b 12.86330(10)
_cell_length_c 14.18320(10)
_cell_angle_alpha 93.4685(10)
_cell_angle_beta 116.0729(11)
_cell_angle_gamma 90.7300(7)
_cell_volume 1334.34
_cell_formula_units_Z 8
_symmetry_space_group_name_H-M 'I -1'
_symmetry_Int_Tables_number 2
_refine_ls_R_factor_all 0.046
loop_
_symmetry_equiv_pos_site_id
_symmetry_equiv_pos_as_xyz
1 '-x, -y, -z'
2 'x, y, z'
3 '-x+1/2, -y+1/2, -z+1/2'
4 'x+1/2, y+1/2, z+1/2'
loop_
_atom_type_symbol
_atom_type_oxidation_number
Ca2+ 2
Na1+ 1
Ca2+ 2
Na1+ 1
Ca2+ 2
Na1+ 1
Ca2+ 2
Na1+ 1
Si4+ 4
Al3+ 3
Si4+ 4
Al3+ 3
Si4+ 4
Al3+ 3
Si4+ 4
Al3+ 3
Si4+ 4
Al3+ 3
Si4+ 4
O2- -2
loop_
_atom_site_label
_atom_site_type_symbol
_atom_site_symmetry_multiplicity
_atom_site_Wyckoff_symbol
_atom_site_fract_x
_atom_site_fract_y
_atom_site_fract_z
_atom_site_B_iso_or_equiv
_atom_site_occupancy
_atom_site_attached_hydrogens
Ca1 Ca2+ 4 i 0.77460(10) -0.46438(7) -0.45553(6) 0.01145(19) 0.3524 0
Na1 Na1+ 4 i 0.77460(10) -0.46438(7) -0.45553(6) 0.01145(19) 0.1184 0
Ca2 Ca2+ 4 i 0.76647(10) -0.51781(9) -0.41250(7) 0.0207(2) 0.3497 0
Na2 Na1+ 4 i 0.76647(10) -0.51781(9) -0.41250(7) 0.0207(2) 0.1795 0
Ca3 Ca2+ 4 i 0.26762(6) 0.03046(4) -0.45370(4) 0.01049(12) 0.5953 0
Na3 Na1+ 4 i 0.26762(6) 0.03046(4) -0.45370(4) 0.01049(12) 0.1528 0
Ca4 Ca2+ 4 i 0.26305(18) 0.99509(17) -0.42056(12) 0.0148(4) 0.2026 0
Na4 Na1+ 4 i 0.26305(18) 0.99509(17) -0.42056(12) 0.0148(4) 0.0493 0
Si1 Si4+ 4 i -0.50757(4) 0.34108(3) -0.60439(2) 0.00474(7) 0.913 0
Al1 Al3+ 4 i -0.50757(4) 0.34108(3) -0.60439(2) 0.00474(7) 0.087 0
Al2 Al3+ 4 i -0.49990(5) 0.31537(3) -0.38140(3) 0.00542(9) 0.7967 0
Si2 Si4+ 4 i -0.49990(5) 0.31537(3) -0.38140(3) 0.00542(9) 0.2033 0
Al3 Al3+ 4 i 0.00328(5) 0.16424(3) -0.38934(3) 0.00506(9) 0.8802 0
Si3 Si4+ 4 i 0.00328(5) 0.16424(3) -0.38934(3) 0.00506(9) 0.1198 0
Si4 Si4+ 4 i 0.00510(4) 0.81734(3) -0.38720(2) 0.00477(7) 0.9021 0
Al4 Al3+ 4 i 0.00510(4) 0.81734(3) -0.38720(2) 0.00477(7) 0.0979 0
Al5 Al3+ 4 i -0.81268(5) 0.61120(3) -0.34277(3) 0.00605(9) 0.7672 0
Si5 Si4+ 4 i -0.81268(5) 0.61120(3) -0.34277(3) 0.00605(9) 0.2328 0
Si6 Si4+ 4 i -0.82336(4) 0.38124(3) -0.31866(3) 0.00595(8) 0.9591 0
Al6 Al3+ 4 i -0.82336(4) 0.38124(3) -0.31866(3) 0.00595(8) 0.0409 0
Si7 Si4+ 4 i -0.32145(4) 0.10588(3) -0.34158(3) 0.00631(8) 0.9475 0
Al7 Al3+ 4 i -0.32145(4) 0.10588(3) -0.34158(3) 0.00631(8) 0.0524 0
Al8 Al3+ 4 i -0.81741(5) 0.37557(3) -0.82353(3) 0.00532(9) 0.7777 0
Si8 Si4+ 4 i -0.81741(5) 0.37557(3) -0.82353(3) 0.00532(9) 0.2223 0
O1 O2- 4 i 0.5180(2) -0.37151(18) -0.50714(18) 0.0111(3) 0.7016 0
O2 O2- 4 i 0.4899(5) -0.3764(3) -0.5122(4) 0.0065(5) 0.2984 0
O3 O2- 4 i -0.01392(11) 0.12548(9) -0.51425(9) 0.0093(2) 0.7146 0
O4 O2- 4 i 0.0221(3) 0.1295(3) -0.5054(2) 0.0128(5) 0.2854 0
O5 O2- 4 i 0.42272(3) 0.00985(2) -0.13969(2) 0.00781(6) 1 0
O6 O2- 4 i 0.57410(3) -0.00873(2) -0.362291(19) 0.00782(6) 1 0
O7 O2- 4 i 0.3146(4) -0.3981(2) -0.41630(12) 0.0090(3) 0.5849 0
O8 O2- 4 i 0.3276(5) -0.4011(3) -0.39854(17) 0.0087(5) 0.4151 0
O9 O2- 4 i 0.18081(16) 0.14921(9) -0.14068(7) 0.0109(2) 0.5329 0
O10 O2- 4 i 0.19909(17) 0.14257(10) -0.11515(8) 0.0100(2) 0.4671 0
O11 O2- 4 i 0.1912(2) -0.10011(15) -0.60245(8) 0.0084(2) 0.6253 0
O12 O2- 4 i 0.2079(4) -0.1029(3) -0.58234(13) 0.0083(4) 0.3747 0
O13 O2- 4 i 0.18568(11) 0.14455(7) -0.60814(5) 0.01021(16) 0.6893 0
O14 O2- 4 i 0.1647(3) 0.14858(17) -0.63420(11) 0.0127(4) 0.3107 0
O15 O2- 4 i 0.49034(4) -0.18117(2) -0.60783(2) 0.01042(7) 1 0
O16 O2- 4 i -0.00926(4) 0.30867(2) -0.60052(2) 0.01170(7) 1 0
O17 O2- 4 i 0.51176(4) -0.21901(2) -0.36402(2) 0.00982(7) 1 0
O18 O2- 4 i 0.48584(4) 0.20586(2) -0.14730(2) 0.01008(7) 1 0
O19 O2- 4 i 0.8149(5) -0.1069(3) -0.1924(3) 0.0089(3) 0.5616 0
O20 O2- 4 i 0.8005(6) -0.1071(4) -0.1831(3) 0.0076(4) 0.4384 0
O21 O2- 4 i 0.20216(15) -0.13016(10) -0.78679(8) 0.01035(18) 0.6656 0
O22 O2- 4 i 0.1863(3) -0.13465(19) -0.77093(15) 0.0104(3) 0.3344 0
O23 O2- 4 i 0.2097(2) 0.10441(15) -0.31390(12) 0.0078(2) 0.5969 0
O24 O2- 4 i 0.1942(4) 0.1036(2) -0.30142(18) 0.0084(3) 0.4031 0
O25 O2- 4 i -0.17891(10) 0.13948(6) -0.71767(5) 0.01184(15) 0.7127 0
O26 O2- 4 i -0.1983(2) 0.13165(16) -0.70047(13) 0.0110(4) 0.2873 0
loop_
_atom_site_aniso_label
_atom_site_aniso_type_symbol
_atom_site_aniso_U_11
_atom_site_aniso_U_22
_atom_site_aniso_U_33
_atom_site_aniso_U_12
_atom_site_aniso_U_13
_atom_site_aniso_U_23
Ca1 Ca2+ 0.0063(2) 0.0143(3) 0.0097(2) 0.00379(19) 0.00037(19) -0.0044(2)
Na1 Na1+ 0.0063(2) 0.0143(3) 0.0097(2) 0.00379(19) 0.00037(19) -0.0044(2)
Ca2 Ca2+ 0.0071(2) 0.0388(5) 0.0139(3) -0.0068(3) 0.0051(2) -0.0160(3)
Na2 Na1+ 0.0071(2) 0.0388(5) 0.0139(3) -0.0068(3) 0.0051(2) -0.0160(3)
Ca3 Ca2+ 0.00637(14) 0.0139(2) 0.00845(16) 0.00296(12) 0.00113(12) -0.00301(13)
Na3 Na1+ 0.00637(14) 0.0139(2) 0.00845(16) 0.00296(12) 0.00113(12) -0.00301(13)
Ca4 Ca2+ 0.0033(4) 0.0336(9) 0.0052(4) 0.0009(4) 0.0009(3) -0.0080(5)
Na4 Na1+ 0.0033(4) 0.0336(9) 0.0052(4) 0.0009(4) 0.0009(3) -0.0080(5)
Si1 Si4+ 0.00440(9) 0.00653(12) 0.00310(9) -0.00125(8) 0.00156(8) 0.00002(7)
Al1 Al3+ 0.00440(9) 0.00653(12) 0.00310(9) -0.00125(8) 0.00156(8) 0.00002(7)
Al2 Al3+ 0.00594(11) 0.00690(14) 0.00327(11) 0.00179(9) 0.00192(9) -0.00016(9)
Si2 Si4+ 0.00594(11) 0.00690(14) 0.00327(11) 0.00179(9) 0.00192(9) -0.00016(9)
Al3 Al3+ 0.00472(11) 0.00651(14) 0.00368(11) -0.00125(9) 0.00166(9) 0.00036(9)
Si3 Si4+ 0.00472(11) 0.00651(14) 0.00368(11) -0.00125(9) 0.00166(9) 0.00036(9)
Si4 Si4+ 0.00478(10) 0.00641(12) 0.00276(9) 0.00232(8) 0.00133(8) 0.00001(7)
Al4 Al3+ 0.00478(10) 0.00641(12) 0.00276(9) 0.00232(8) 0.00133(8) 0.00001(7)
Al5 Al3+ 0.00423(11) 0.00501(14) 0.00761(12) 0.00006(9) 0.00147(9) 0.00014(9)
Si5 Si4+ 0.00423(11) 0.00501(14) 0.00761(12) 0.00006(9) 0.00147(9) 0.00014(9)
Si6 Si4+ 0.00438(10) 0.00433(12) 0.00752(11) 0.00048(8) 0.00107(8) 0.00105(8)
Al6 Al3+ 0.00438(10) 0.00433(12) 0.00752(11) 0.00048(8) 0.00107(8) 0.00105(8)
Si7 Si4+ 0.00423(10) 0.00473(12) 0.00852(11) 0.00000(8) 0.00163(8) -0.00077(8)
Al7 Al3+ 0.00423(10) 0.00473(12) 0.00852(11) 0.00000(8) 0.00163(8) -0.00077(8)
Al8 Al3+ 0.00408(11) 0.00534(14) 0.00641(12) 0.00013(9) 0.00207(9) 0.00133(9)
Si8 Si4+ 0.00408(11) 0.00534(14) 0.00641(12) 0.00013(9) 0.00207(9) 0.00133(9)
O1 O2- 0.0131(5) 0.0152(3) 0.0068(3) -0.0037(3) 0.0062(4) -0.00114(17)
O2 O2- 0.0077(8) 0.0082(7) 0.0050(5) 0.0010(6) 0.0040(6) 0.0012(4)
O3 O2- 0.0119(3) 0.0119(2) 0.0060(2) 0.0024(2) 0.0056(3) 0.00184(15)
O4 O2- 0.0075(7) 0.0253(7) 0.0057(5) -0.0048(6) 0.0034(6) -0.0003(4)
O5 O2- 0.00670(8) 0.00733(10) 0.00891(8) 0.00181(6) 0.00270(7) 0.00252(6)
O6 O2- 0.00649(8) 0.00701(10) 0.00850(8) -0.00138(6) 0.00206(7) 0.00016(6)
O7 O2- 0.0077(3) 0.0099(3) 0.0091(5) -0.0027(2) 0.0037(4) -0.0013(4)
O8 O2- 0.0078(6) 0.0103(4) 0.0091(7) -0.0030(4) 0.0051(6) -0.0010(6)
O9 O2- 0.0095(3) 0.0119(3) 0.0131(3) 0.00319(18) 0.0064(3) 0.0019(3)
O10 O2- 0.0078(3) 0.0111(3) 0.0127(4) 0.0014(2) 0.0061(3) 0.0000(3)
O11 O2- 0.0077(3) 0.0092(2) 0.0091(4) -0.00073(19) 0.0047(3) -0.0006(3)
O12 O2- 0.0087(5) 0.0084(4) 0.0088(6) -0.0014(3) 0.0049(5) -0.0009(5)
O13 O2- 0.00774(19) 0.01226(19) 0.0126(2) 0.00298(13) 0.0062(2) 0.0011(2)
O14 O2- 0.0120(5) 0.0187(5) 0.0114(5) 0.0047(4) 0.0087(5) 0.0015(5)
O15 O2- 0.00854(9) 0.01162(12) 0.00862(9) 0.00429(7) 0.00157(7) -0.00048(7)
O16 O2- 0.01333(10) 0.01009(11) 0.00815(9) 0.00392(7) 0.00172(8) -0.00181(7)
O17 O2- 0.01019(9) 0.00913(11) 0.01031(9) -0.00136(7) 0.00484(7) -0.00013(7)
O18 O2- 0.00902(9) 0.00931(11) 0.01030(9) -0.00331(7) 0.00304(7) -0.00049(7)
O19 O2- 0.0075(5) 0.0123(3) 0.0060(5) 0.0008(3) 0.0021(2) 0.0015(3)
O20 O2- 0.0062(5) 0.0089(3) 0.0067(7) 0.0009(3) 0.0020(3) 0.0004(4)
O21 O2- 0.0074(2) 0.0121(2) 0.0072(3) 0.00125(15) -0.00024(16) -0.0037(2)
O22 O2- 0.0094(5) 0.0109(4) 0.0068(5) -0.0014(3) 0.0003(3) -0.0028(4)
O23 O2- 0.0088(3) 0.0086(2) 0.0040(3) 0.00058(19) 0.00088(18) 0.0010(2)
O24 O2- 0.0081(4) 0.0106(3) 0.0043(5) 0.0008(3) 0.0007(3) 0.0011(3)
O25 O2- 0.0103(2) 0.0135(2) 0.0071(2) -0.00027(14) -0.00018(13) -0.00053(15)
O26 O2- 0.0059(4) 0.0165(6) 0.0070(5) 0.0020(3) -0.0001(3) -0.0030(4)
#End of TTdata_263472-ICSD