
#(C) 2019 by FIZ Karlsruhe - Leibniz Institute for Information Infrastructure.  All rights reserved.
data_263471-ICSD
_database_code_ICSD 263471
_audit_creation_date 2018-08-01
_chemical_name_systematic
'Calcium sodium aluminium silicate (0.75/0.25/1.75/2.25)'
_chemical_formula_structural 'Ca0.75 Na0.25 Al1.75 Si2.25 O8'
_chemical_formula_sum 'Al1.75 Ca0.75 Na0.25 O8 Si2.25'
_chemical_name_structure_type Feldspar#-(TC,I1-,i28)-Bytownite
_chemical_name_mineral Plagioclase
_exptl_crystal_density_diffrn 2.73
_cell_measurement_temperature 100.
_publ_section_title

;
Revisiting the I anti 1 structures of high-temperature Ca-rich plagioclase
feldspar - a single-crystal neutron and X-ray diffraction study
;
loop_
_citation_id
_citation_journal_full
_citation_year
_citation_journal_volume
_citation_page_first
_citation_page_last
_citation_journal_id_ASTM
primary

;
Acta Crystallographica, Section B: Structural Science, Crystal Engineering and
Materials
; 2018 74 152 164 ACSBDA
loop_
_publ_author_name
'Jin, Shiyun'
'Wang, Xiaoping'
'Xu, Huifang'
_cell_length_a 8.16620(10)
_cell_length_b 12.86800(10)
_cell_length_c 14.19270(10)
_cell_angle_alpha 93.4772(10)
_cell_angle_beta 116.1430(10)
_cell_angle_gamma 90.6664(6)
_cell_volume 1335.14
_cell_formula_units_Z 8
_symmetry_space_group_name_H-M 'I -1'
_symmetry_Int_Tables_number 2
_refine_ls_R_factor_all 0.0268
loop_
_symmetry_equiv_pos_site_id
_symmetry_equiv_pos_as_xyz
1 '-x, -y, -z'
2 'x, y, z'
3 '-x+1/2, -y+1/2, -z+1/2'
4 'x+1/2, y+1/2, z+1/2'
loop_
_atom_type_symbol
_atom_type_oxidation_number
Ca2+ 2
Na1+ 1
Ca2+ 2
Na1+ 1
Ca2+ 2
Na1+ 1
Ca2+ 2
Na1+ 1
Si4+ 4
Al3+ 3
Si4+ 4
Al3+ 3
Si4+ 4
Al3+ 3
Si4+ 4
Al3+ 3
Si4+ 4
Al3+ 3
Si4+ 4
O2- -2
loop_
_atom_site_label
_atom_site_type_symbol
_atom_site_symmetry_multiplicity
_atom_site_Wyckoff_symbol
_atom_site_fract_x
_atom_site_fract_y
_atom_site_fract_z
_atom_site_B_iso_or_equiv
_atom_site_occupancy
_atom_site_attached_hydrogens
Ca1 Ca2+ 4 i 0.77450(10) -0.46484(6) -0.45497(6) 0.0120(3) 0.3083 0
Na1 Na1+ 4 i 0.77450(10) -0.46484(6) -0.45497(6) 0.0120(3) 0.1386 0
Ca2 Ca2+ 4 i 0.76656(8) -0.51713(7) -0.41243(5) 0.0195(2) 0.3816 0
Na2 Na1+ 4 i 0.76656(8) -0.51713(7) -0.41243(5) 0.0195(2) 0.1716 0
Ca3 Ca2+ 4 i 0.26716(5) 0.02980(4) -0.45319(4) 0.01174(15) 0.6264 0
Na3 Na1+ 4 i 0.26716(5) 0.02980(4) -0.45319(4) 0.01174(15) 0.1468 0
Ca4 Ca2+ 4 i 0.26303(19) 0.99137(16) -0.41800(12) 0.0147(5) 0.1838 0
Na4 Na1+ 4 i 0.26303(19) 0.99137(16) -0.41800(12) 0.0147(5) 0.0431 0
Si1 Si4+ 4 i -0.50768(5) 0.34090(3) -0.60443(3) 0.00612(13) 0.8771 0
Al1 Al3+ 4 i -0.50768(5) 0.34090(3) -0.60443(3) 0.00612(13) 0.1229 0
Al2 Al3+ 4 i -0.50019(5) 0.31561(3) -0.38162(3) 0.00671(14) 0.7579 0
Si2 Si4+ 4 i -0.50019(5) 0.31561(3) -0.38162(3) 0.00671(14) 0.2421 0
Al3 Al3+ 4 i 0.00344(5) 0.16455(3) -0.38931(3) 0.00603(14) 0.9337 0
Si3 Si4+ 4 i 0.00344(5) 0.16455(3) -0.38931(3) 0.00603(14) 0.0663 0
Si4 Si4+ 4 i 0.00530(5) 0.81739(3) -0.38710(3) 0.00652(13) 0.9567 0
Al4 Al3+ 4 i 0.00530(5) 0.81739(3) -0.38710(3) 0.00652(13) 0.0433 0
Al5 Al3+ 4 i -0.81274(5) 0.61096(3) -0.34313(3) 0.00719(14) 0.7052 0
Si5 Si4+ 4 i -0.81274(5) 0.61096(3) -0.34313(3) 0.00719(14) 0.2948 0
Si6 Si4+ 4 i -0.82304(5) 0.38128(3) -0.31839(3) 0.00714(13) 0.9243 0
Al6 Al3+ 4 i -0.82304(5) 0.38128(3) -0.31839(3) 0.00714(13) 0.0757 0
Si7 Si4+ 4 i -0.32124(5) 0.10600(3) -0.34138(3) 0.00744(13) 0.933 0
Al7 Al3+ 4 i -0.32124(5) 0.10600(3) -0.34138(3) 0.00744(13) 0.067 0
Al8 Al3+ 4 i -0.81754(5) 0.37565(3) -0.82386(3) 0.00653(14) 0.7942 0
Si8 Si4+ 4 i -0.81754(5) 0.37565(3) -0.82386(3) 0.00653(14) 0.2058 0
O1 O2- 4 i 0.50981(14) -0.37291(8) -0.50863(8) 0.0139(4) 1 0
O2 O2- 4 i -0.00652(15) 0.12653(8) -0.51243(8) 0.0159(4) 1 0
O3 O2- 4 i 0.42212(12) 0.00942(7) -0.13989(7) 0.0092(3) 1 0
O4 O2- 4 i 0.57405(12) -0.00868(7) -0.36255(7) 0.0091(3) 1 0
O5 O2- 4 i 0.31863(13) -0.39906(8) -0.40992(9) 0.0143(4) 1 0
O6 O2- 4 i 0.18898(15) 0.14637(9) -0.12925(10) 0.0219(4) 1 0
O7 O2- 4 i 0.19679(14) -0.10131(8) -0.59566(9) 0.0152(4) 1 0
O8 O2- 4 i 0.18141(14) 0.14549(9) -0.61391(10) 0.0195(4) 1 0
O9 O2- 4 i 0.51155(13) -0.21863(8) -0.36380(7) 0.0114(3) 1 0
O10 O2- 4 i 0.49018(13) -0.18174(8) -0.60809(8) 0.0123(3) 1 0
O11 O2- 4 i 0.48673(13) 0.20550(8) -0.14717(7) 0.0112(3) 1 0
O12 O2- 4 i -0.01003(13) 0.30857(8) -0.60067(8) 0.0133(3) 1 0
O13 O2- 4 i 0.80921(13) -0.10682(8) -0.18926(8) 0.0131(3) 1 0
O14 O2- 4 i 0.19769(14) -0.13152(9) -0.78213(9) 0.0181(4) 1 0
O15 O2- 4 i 0.20387(14) 0.10427(8) -0.30919(8) 0.0149(3) 1 0
O16 O2- 4 i -0.18319(15) 0.13790(9) -0.71439(9) 0.0206(4) 1 0
loop_
_atom_site_aniso_label
_atom_site_aniso_type_symbol
_atom_site_aniso_U_11
_atom_site_aniso_U_22
_atom_site_aniso_U_33
_atom_site_aniso_U_12
_atom_site_aniso_U_13
_atom_site_aniso_U_23
Ca1 Ca2+ 0.0061(3) 0.0152(4) 0.0118(3) 0.0036(3) 0.0017(3) -0.0035(3)
Na1 Na1+ 0.0061(3) 0.0152(4) 0.0118(3) 0.0036(3) 0.0017(3) -0.0035(3)
Ca2 Ca2+ 0.0072(3) 0.0362(4) 0.0140(3) -0.0059(2) 0.0056(2) -0.0125(3)
Na2 Na1+ 0.0072(3) 0.0362(4) 0.0140(3) -0.0059(2) 0.0056(2) -0.0125(3)
Ca3 Ca2+ 0.00549(19) 0.0154(2) 0.0108(2) 0.00329(15) 0.00100(15) -0.00396(17)
Na3 Na1+ 0.00549(19) 0.0154(2) 0.0108(2) 0.00329(15) 0.00100(15) -0.00396(17)
Ca4 Ca2+ 0.0060(6) 0.0347(9) 0.0046(6) -0.0019(6) 0.0038(5) -0.0016(6)
Na4 Na1+ 0.0060(6) 0.0347(9) 0.0046(6) -0.0019(6) 0.0038(5) -0.0016(6)
Si1 Si4+ 0.00498(17) 0.00826(18) 0.00481(17) -0.00074(12) 0.00187(13)
0.00085(13)
Al1 Al3+ 0.00498(17) 0.00826(18) 0.00481(17) -0.00074(12) 0.00187(13)
0.00085(13)
Al2 Al3+ 0.00636(18) 0.0086(2) 0.00485(18) 0.00264(14) 0.00211(14) 0.00053(14)
Si2 Si4+ 0.00636(18) 0.0086(2) 0.00485(18) 0.00264(14) 0.00211(14) 0.00053(14)
Al3 Al3+ 0.00493(18) 0.00763(19) 0.00515(19) -0.00078(13) 0.00183(14)
0.00111(14)
Si3 Si4+ 0.00493(18) 0.00763(19) 0.00515(19) -0.00078(13) 0.00183(14)
0.00111(14)
Si4 Si4+ 0.00558(17) 0.00905(19) 0.00445(17) 0.00304(13) 0.00168(13) 0.00081(13)
Al4 Al3+ 0.00558(17) 0.00905(19) 0.00445(17) 0.00304(13) 0.00168(13) 0.00081(13)
Al5 Al3+ 0.00487(18) 0.00634(19) 0.0093(2) 0.00084(13) 0.00212(14) 0.00108(14)
Si5 Si4+ 0.00487(18) 0.00634(19) 0.0093(2) 0.00084(13) 0.00212(14) 0.00108(14)
Si6 Si4+ 0.00475(17) 0.00629(18) 0.00874(18) 0.00102(12) 0.00133(13) 0.00174(13)
Al6 Al3+ 0.00475(17) 0.00629(18) 0.00874(18) 0.00102(12) 0.00133(13) 0.00174(13)
Si7 Si4+ 0.00486(17) 0.00607(18) 0.01002(19) 0.00069(12) 0.00210(14)
-0.00004(13)
Al7 Al3+ 0.00486(17) 0.00607(18) 0.01002(19) 0.00069(12) 0.00210(14)
-0.00004(13)
Al8 Al3+ 0.00443(18) 0.00717(19) 0.00761(19) 0.00062(13) 0.00213(14) 0.00191(14)
Si8 Si4+ 0.00443(18) 0.00717(19) 0.00761(19) 0.00062(13) 0.00213(14) 0.00191(14)
O1 O2- 0.0200(5) 0.0157(5) 0.0078(5) 0.0011(4) 0.0075(4) 0.0010(4)
O2 O2- 0.0244(6) 0.0183(5) 0.0088(5) 0.0050(4) 0.0103(4) 0.0034(4)
O3 O2- 0.0077(4) 0.0093(4) 0.0101(4) 0.0029(3) 0.0029(3) 0.0037(3)
O4 O2- 0.0073(4) 0.0085(4) 0.0094(4) -0.0010(3) 0.0018(3) 0.0010(3)
O5 O2- 0.0110(5) 0.0124(5) 0.0213(5) -0.0026(4) 0.0093(4) -0.0020(4)
O6 O2- 0.0139(5) 0.0153(5) 0.0400(7) -0.0005(4) 0.0162(5) -0.0059(5)
O7 O2- 0.0131(5) 0.0113(5) 0.0252(6) -0.0004(4) 0.0124(4) -0.0015(4)
O8 O2- 0.0136(5) 0.0172(5) 0.0323(6) 0.0017(4) 0.0147(5) -0.0024(4)
O9 O2- 0.0114(4) 0.0119(5) 0.0107(5) -0.0010(3) 0.0047(4) 0.0008(4)
O10 O2- 0.0084(4) 0.0148(5) 0.0101(5) 0.0046(3) 0.0009(3) -0.0003(4)
O11 O2- 0.0098(4) 0.0124(5) 0.0097(4) -0.0028(3) 0.0028(3) 0.0001(4)
O12 O2- 0.0133(5) 0.0123(5) 0.0103(5) 0.0042(4) 0.0016(4) -0.0014(4)
O13 O2- 0.0101(4) 0.0125(5) 0.0103(5) 0.0009(3) -0.0012(4) 0.0011(4)
O14 O2- 0.0117(5) 0.0152(5) 0.0152(5) 0.0031(4) -0.0045(4) -0.0046(4)
O15 O2- 0.0120(5) 0.0112(5) 0.0113(5) 0.0011(4) -0.0041(4) 0.0009(4)
O16 O2- 0.0139(5) 0.0184(5) 0.0161(5) 0.0038(4) -0.0051(4) -0.0032(4)
#End of TTdata_263471-ICSD