
#(C) 2019 by FIZ Karlsruhe - Leibniz Institute for Information Infrastructure.  All rights reserved.
data_263474-ICSD
_database_code_ICSD 263474
_audit_creation_date 2018-08-01
_chemical_name_systematic
'Calcium sodium aluminium silicate (0.66/0.34/1.66/2.34)'
_chemical_formula_structural 'Ca0.66 Na0.34 Al1.66 Si2.34 O8'
_chemical_formula_sum 'Al1.66 Ca0.66 Na0.34 O8 Si2.34'
_chemical_name_structure_type Feldspar#-(TC,I1-,i28)-Bytownite
_chemical_name_mineral Plagioclase
_exptl_crystal_density_diffrn 2.72
_cell_measurement_temperature 100.
_publ_section_title

;
Revisiting the I anti 1 structures of high-temperature Ca-rich plagioclase
feldspar - a single-crystal neutron and X-ray diffraction study
;
loop_
_citation_id
_citation_journal_full
_citation_year
_citation_journal_volume
_citation_page_first
_citation_page_last
_citation_journal_id_ASTM
primary

;
Acta Crystallographica, Section B: Structural Science, Crystal Engineering and
Materials
; 2018 74 152 164 ACSBDA
loop_
_publ_author_name
'Jin, Shiyun'
'Wang, Xiaoping'
'Xu, Huifang'
_cell_length_a 8.1635(2)
_cell_length_b 12.8615(2)
_cell_length_c 14.1936(3)
_cell_angle_alpha 93.5104(19)
_cell_angle_beta 116.124(2)
_cell_angle_gamma 90.5297(13)
_cell_volume 1334.41
_cell_formula_units_Z 8
_symmetry_space_group_name_H-M 'I -1'
_symmetry_Int_Tables_number 2
_refine_ls_R_factor_all 0.0751
loop_
_symmetry_equiv_pos_site_id
_symmetry_equiv_pos_as_xyz
1 '-x, -y, -z'
2 'x, y, z'
3 '-x+1/2, -y+1/2, -z+1/2'
4 'x+1/2, y+1/2, z+1/2'
loop_
_atom_type_symbol
_atom_type_oxidation_number
Ca2+ 2
Na1+ 1
Ca2+ 2
Na1+ 1
Ca2+ 2
Na1+ 1
Ca2+ 2
Na1+ 1
Si4+ 4
Al3+ 3
Si4+ 4
Al3+ 3
Si4+ 4
Al3+ 3
Si4+ 4
Al3+ 3
Si4+ 4
Al3+ 3
Si4+ 4
O2- -2
loop_
_atom_site_label
_atom_site_type_symbol
_atom_site_symmetry_multiplicity
_atom_site_Wyckoff_symbol
_atom_site_fract_x
_atom_site_fract_y
_atom_site_fract_z
_atom_site_B_iso_or_equiv
_atom_site_occupancy
_atom_site_attached_hydrogens
Ca1 Ca2+ 4 i 0.77450(16) -0.46553(11) -0.45453(10) 0.0136(3) 0.3142 0
Na1 Na1+ 4 i 0.77450(16) -0.46553(11) -0.45453(10) 0.0136(3) 0.1672 0
Ca2 Ca2+ 4 i 0.76663(18) -0.51815(15) -0.41333(12) 0.0248(4) 0.3102 0
Na2 Na1+ 4 i 0.76663(18) -0.51815(15) -0.41333(12) 0.0248(4) 0.2084 0
Ca3 Ca2+ 4 i 0.26840(10) 0.03017(7) -0.45307(7) 0.0125(2) 0.4968 0
Na3 Na1+ 4 i 0.26840(10) 0.03017(7) -0.45307(7) 0.0125(2) 0.2546 0
Ca4 Ca2+ 4 i 0.2628(3) 0.9919(3) -0.42034(18) 0.0176(7) 0.1988 0
Na4 Na1+ 4 i 0.2628(3) 0.9919(3) -0.42034(18) 0.0176(7) 0.0498 0
Si1 Si4+ 4 i -0.50762(7) 0.34005(4) -0.60478(4) 0.00540(11) 0.8554 0
Al1 Al3+ 4 i -0.50762(7) 0.34005(4) -0.60478(4) 0.00540(11) 0.1446 0
Al2 Al3+ 4 i -0.49943(8) 0.31568(4) -0.38203(4) 0.00573(13) 0.7626 0
Si2 Si4+ 4 i -0.49943(8) 0.31568(4) -0.38203(4) 0.00573(13) 0.2373 0
Al3 Al3+ 4 i 0.00396(8) 0.16441(4) -0.38999(4) 0.00579(13) 0.7393 0
Si3 Si4+ 4 i 0.00396(8) 0.16441(4) -0.38999(4) 0.00579(13) 0.2607 0
Si4 Si4+ 4 i 0.00500(7) 0.81717(4) -0.38674(4) 0.00517(11) 0.8152 0
Al4 Al3+ 4 i 0.00500(7) 0.81717(4) -0.38674(4) 0.00517(11) 0.1848 0
Al5 Al3+ 4 i -0.81262(7) 0.61069(4) -0.34243(4) 0.00629(13) 0.5537 0
Si5 Si4+ 4 i -0.81262(7) 0.61069(4) -0.34243(4) 0.00629(13) 0.4463 0
Si6 Si4+ 4 i -0.82238(7) 0.38098(4) -0.31921(4) 0.00535(12) 0.7663 0
Al6 Al3+ 4 i -0.82238(7) 0.38098(4) -0.31921(4) 0.00535(12) 0.2337 0
Si7 Si4+ 4 i -0.32006(7) 0.10635(4) -0.34150(4) 0.00650(12) 0.9699 0
Al7 Al3+ 4 i -0.32006(7) 0.10635(4) -0.34150(4) 0.00650(12) 0.0302 0
Al8 Al3+ 4 i -0.81748(8) 0.37606(4) -0.82335(4) 0.00561(13) 0.6711 0
Si8 Si4+ 4 i -0.81748(8) 0.37606(4) -0.82335(4) 0.00561(13) 0.3289 0
O1 O2- 4 i 0.50877(7) -0.37179(4) -0.50884(3) 0.01408(13) 1 0
O2 O2- 4 i -0.00374(8) 0.12740(4) -0.51178(4) 0.01652(14) 1 0
O3 O2- 4 i 0.42103(5) 0.00941(3) -0.13957(3) 0.00855(10) 1 0
O4 O2- 4 i 0.57594(5) -0.00858(3) -0.36195(3) 0.00869(10) 1 0
O5 O2- 4 i 0.31909(6) -0.39820(4) -0.40825(4) 0.01400(13) 1 0
O6 O2- 4 i 0.18860(8) 0.14687(4) -0.12746(6) 0.02235(19) 1 0
O7 O2- 4 i 0.19536(7) -0.10187(4) -0.59564(4) 0.01439(13) 1 0
O8 O2- 4 i 0.18150(7) 0.14613(4) -0.61557(5) 0.02019(17) 1 0
O9 O2- 4 i 0.51223(6) -0.21738(3) -0.36364(3) 0.01138(11) 1 0
O10 O2- 4 i 0.48887(6) -0.18198(4) -0.60817(3) 0.01213(11) 1 0
O11 O2- 4 i 0.48567(6) 0.20584(3) -0.14591(3) 0.01129(11) 1 0
O12 O2- 4 i -0.01066(6) 0.30910(4) -0.60181(3) 0.01331(11) 1 0
O13 O2- 4 i 0.80708(6) -0.10745(4) -0.18920(3) 0.01261(11) 1 0
O14 O2- 4 i 0.19620(7) -0.13196(4) -0.78249(4) 0.01773(12) 1 0
O15 O2- 4 i 0.20319(6) 0.10487(3) -0.30875(4) 0.01378(11) 1 0
O16 O2- 4 i -0.18458(7) 0.13728(4) -0.71403(4) 0.01961(14) 1 0
loop_
_atom_site_aniso_label
_atom_site_aniso_type_symbol
_atom_site_aniso_U_11
_atom_site_aniso_U_22
_atom_site_aniso_U_33
_atom_site_aniso_U_12
_atom_site_aniso_U_13
_atom_site_aniso_U_23
Ca1 Ca2+ 0.0075(4) 0.0166(5) 0.0114(4) 0.0032(3) 0.0002(3) -0.0062(3)
Na1 Na1+ 0.0075(4) 0.0166(5) 0.0114(4) 0.0032(3) 0.0002(3) -0.0062(3)
Ca2 Ca2+ 0.0081(4) 0.0472(9) 0.0169(5) -0.0083(5) 0.0067(4) -0.0200(6)
Na2 Na1+ 0.0081(4) 0.0472(9) 0.0169(5) -0.0083(5) 0.0067(4) -0.0200(6)
Ca3 Ca2+ 0.0078(3) 0.0158(3) 0.0106(3) 0.0028(2) 0.0016(2) -0.0040(2)
Na3 Na1+ 0.0078(3) 0.0158(3) 0.0106(3) 0.0028(2) 0.0016(2) -0.0040(2)
Ca4 Ca2+ 0.0023(7) 0.0423(16) 0.0060(7) -0.0011(7) 0.0015(5) -0.0114(9)
Na4 Na1+ 0.0023(7) 0.0423(16) 0.0060(7) -0.0011(7) 0.0015(5) -0.0114(9)
Si1 Si4+ 0.00491(16) 0.00747(17) 0.00340(14) -0.00195(12) 0.00157(12)
-0.00008(12)
Al1 Al3+ 0.00491(16) 0.00747(17) 0.00340(14) -0.00195(12) 0.00157(12)
-0.00008(12)
Al2 Al3+ 0.00608(18) 0.00781(19) 0.00308(16) 0.00250(14) 0.00185(14)
-0.00015(13)
Si2 Si4+ 0.00608(18) 0.00781(19) 0.00308(16) 0.00250(14) 0.00185(14)
-0.00015(13)
Al3 Al3+ 0.00589(18) 0.00667(18) 0.00426(16) -0.00165(13) 0.00175(14)
0.00053(13)
Si3 Si4+ 0.00589(18) 0.00667(18) 0.00426(16) -0.00165(13) 0.00175(14)
0.00053(13)
Si4 Si4+ 0.00530(16) 0.00720(16) 0.00254(14) 0.00252(12) 0.00134(12)
-0.00033(11)
Al4 Al3+ 0.00530(16) 0.00720(16) 0.00254(14) 0.00252(12) 0.00134(12)
-0.00033(11)
Al5 Al3+ 0.00519(18) 0.00542(17) 0.00699(17) 0.00021(13) 0.00158(14) 0.00015(13)
Si5 Si4+ 0.00519(18) 0.00542(17) 0.00699(17) 0.00021(13) 0.00158(14) 0.00015(13)
Si6 Si4+ 0.00453(16) 0.00381(15) 0.00652(16) 0.00024(11) 0.00128(13) 0.00097(12)
Al6 Al3+ 0.00453(16) 0.00381(15) 0.00652(16) 0.00024(11) 0.00128(13) 0.00097(12)
Si7 Si4+ 0.00520(16) 0.00504(15) 0.00767(16) 0.00029(11) 0.00155(13)
-0.00089(12)
Al7 Al3+ 0.00520(16) 0.00504(15) 0.00767(16) 0.00029(11) 0.00155(13)
-0.00089(12)
Al8 Al3+ 0.00475(17) 0.00590(17) 0.00606(17) 0.00004(13) 0.00222(14) 0.00097(13)
Si8 Si4+ 0.00475(17) 0.00590(17) 0.00606(17) 0.00004(13) 0.00222(14) 0.00097(13)
O1 O2- 0.0208(2) 0.01613(17) 0.00795(14) 0.00139(14) 0.00869(14) 0.00111(12)
O2 O2- 0.0261(2) 0.01898(19) 0.00902(15) 0.00551(16) 0.01151(15) 0.00376(13)
O3 O2- 0.00789(13) 0.00787(13) 0.00919(13) 0.00164(9) 0.00284(11) 0.00282(10)
O4 O2- 0.00803(13) 0.00765(13) 0.00894(13) -0.00183(9) 0.00248(10) 0.00042(10)
O5 O2- 0.01205(16) 0.01086(15) 0.02125(19) -0.00345(11) 0.00984(15) -0.00236(13)
O6 O2- 0.0153(2) 0.01389(18) 0.0430(3) -0.00172(14) 0.0188(2) -0.00764(19)
O7 O2- 0.01349(17) 0.00984(15) 0.0238(2) -0.00106(12) 0.01231(16) -0.00191(13)
O8 O2- 0.01427(19) 0.01525(18) 0.0362(3) 0.00117(14) 0.0167(2) -0.00462(18)
O9 O2- 0.01149(15) 0.01179(15) 0.01101(14) -0.00159(11) 0.00525(12) 0.00008(11)
O10 O2- 0.00998(15) 0.01420(16) 0.00891(14) 0.00555(11) 0.00125(11) -0.00067(11)
O11 O2- 0.01025(15) 0.01038(14) 0.01147(14) -0.00357(11) 0.00331(12) 0.00045(11)
O12 O2- 0.01535(17) 0.01162(15) 0.00866(14) 0.00464(12) 0.00166(12) -0.00213(11)
O13 O2- 0.01093(15) 0.01145(15) 0.00989(14) 0.00046(11) -0.00053(12) 0.00123(11)
O14 O2- 0.01223(17) 0.01278(17) 0.01529(17) 0.00202(12) -0.00493(13)
-0.00517(13)
O15 O2- 0.01237(16) 0.01001(15) 0.01029(15) 0.00056(11) -0.00290(12) 0.00083(11)
O16 O2- 0.01326(18) 0.01591(19) 0.01637(19) 0.00248(13) -0.00495(14)
-0.00414(15)
#End of TTdata_263474-ICSD