
#(C) 2019 by FIZ Karlsruhe - Leibniz Institute for Information Infrastructure.  All rights reserved.
data_263481-ICSD
_database_code_ICSD 263481
_audit_creation_date 2018-08-01
_chemical_name_systematic
'Calcium sodium aluminium silicate (0.75/0.25/1.75/2.25)'
_chemical_formula_structural 'Ca0.75 Na0.25 Al1.75 Si2.25 O8'
_chemical_formula_sum 'Al1.75 Ca0.75 Na0.25 O8 Si2.25'
_chemical_name_structure_type Feldspar#-(TC,I1-,i28)-Bytownite
_chemical_name_mineral Plagioclase
_exptl_crystal_density_diffrn 2.73
_cell_measurement_temperature 100.
_publ_section_title

;
Revisiting the I anti 1 structures of high-temperature Ca-rich plagioclase
feldspar - a single-crystal neutron and X-ray diffraction study
;
loop_
_citation_id
_citation_journal_full
_citation_year
_citation_journal_volume
_citation_page_first
_citation_page_last
_citation_journal_id_ASTM
primary

;
Acta Crystallographica, Section B: Structural Science, Crystal Engineering and
Materials
; 2018 74 152 164 ACSBDA
loop_
_publ_author_name
'Jin, Shiyun'
'Wang, Xiaoping'
'Xu, Huifang'
_cell_length_a 8.16520(10)
_cell_length_b 12.86330(10)
_cell_length_c 14.18320(10)
_cell_angle_alpha 93.4685(10)
_cell_angle_beta 116.0729(11)
_cell_angle_gamma 90.7300(7)
_cell_volume 1334.34
_cell_formula_units_Z 8
_symmetry_space_group_name_H-M 'I -1'
_symmetry_Int_Tables_number 2
_refine_ls_R_factor_all 0.0604
loop_
_symmetry_equiv_pos_site_id
_symmetry_equiv_pos_as_xyz
1 '-x, -y, -z'
2 'x, y, z'
3 '-x+1/2, -y+1/2, -z+1/2'
4 'x+1/2, y+1/2, z+1/2'
loop_
_atom_type_symbol
_atom_type_oxidation_number
Ca2+ 2
Na1+ 1
Ca2+ 2
Na1+ 1
Ca2+ 2
Na1+ 1
Ca2+ 2
Na1+ 1
Si4+ 4
Al3+ 3
Si4+ 4
Al3+ 3
Si4+ 4
Al3+ 3
Si4+ 4
Al3+ 3
Si4+ 4
Al3+ 3
Si4+ 4
O2- -2
loop_
_atom_site_label
_atom_site_type_symbol
_atom_site_symmetry_multiplicity
_atom_site_Wyckoff_symbol
_atom_site_fract_x
_atom_site_fract_y
_atom_site_fract_z
_atom_site_B_iso_or_equiv
_atom_site_occupancy
_atom_site_attached_hydrogens
Ca1 Ca2+ 4 i 0.77467(12) -0.46446(8) -0.45542(7) 0.0117(2) 0.3524 0
Na1 Na1+ 4 i 0.77467(12) -0.46446(8) -0.45542(7) 0.0117(2) 0.1184 0
Ca2 Ca2+ 4 i 0.76649(12) -0.51789(11) -0.41232(8) 0.0209(3) 0.3497 0
Na2 Na1+ 4 i 0.76649(12) -0.51789(11) -0.41232(8) 0.0209(3) 0.1795 0
Ca3 Ca2+ 4 i 0.26773(7) 0.03046(5) -0.45354(5) 0.01063(14) 0.5953 0
Na3 Na1+ 4 i 0.26773(7) 0.03046(5) -0.45354(5) 0.01063(14) 0.1528 0
Ca4 Ca2+ 4 i 0.2628(2) 0.9948(2) -0.42072(14) 0.0145(5) 0.2026 0
Na4 Na1+ 4 i 0.2628(2) 0.9948(2) -0.42072(14) 0.0145(5) 0.0493 0
Si1 Si4+ 4 i -0.50758(5) 0.34111(3) -0.60440(3) 0.00488(9) 0.913 0
Al1 Al3+ 4 i -0.50758(5) 0.34111(3) -0.60440(3) 0.00488(9) 0.087 0
Al2 Al3+ 4 i -0.49976(6) 0.31541(4) -0.38142(3) 0.00544(10) 0.7967 0
Si2 Si4+ 4 i -0.49976(6) 0.31541(4) -0.38142(3) 0.00544(10) 0.2033 0
Al3 Al3+ 4 i 0.00325(6) 0.16419(4) -0.38935(3) 0.00516(10) 0.8802 0
Si3 Si4+ 4 i 0.00325(6) 0.16419(4) -0.38935(3) 0.00516(10) 0.1198 0
Si4 Si4+ 4 i 0.00509(5) 0.81731(3) -0.38720(3) 0.00481(9) 0.9021 0
Al4 Al3+ 4 i 0.00509(5) 0.81731(3) -0.38720(3) 0.00481(9) 0.0979 0
Al5 Al3+ 4 i -0.81281(6) 0.61120(4) -0.34275(4) 0.00619(11) 0.7672 0
Si5 Si4+ 4 i -0.81281(6) 0.61120(4) -0.34275(4) 0.00619(11) 0.2328 0
Si6 Si4+ 4 i -0.82338(5) 0.38122(3) -0.31865(3) 0.00605(9) 0.9591 0
Al6 Al3+ 4 i -0.82338(5) 0.38122(3) -0.31865(3) 0.00605(9) 0.0409 0
Si7 Si4+ 4 i -0.32148(5) 0.10588(3) -0.34168(3) 0.00632(9) 0.9475 0
Al7 Al3+ 4 i -0.32148(5) 0.10588(3) -0.34168(3) 0.00632(9) 0.0524 0
Al8 Al3+ 4 i -0.81740(6) 0.37558(4) -0.82351(3) 0.00553(10) 0.7777 0
Si8 Si4+ 4 i -0.81740(6) 0.37558(4) -0.82351(3) 0.00553(10) 0.2223 0
O1 O2- 4 i 0.50946(6) -0.37273(3) -0.50864(3) 0.01347(10) 1 0
O2 O2- 4 i -0.00541(6) 0.12665(3) -0.51211(3) 0.01546(11) 1 0
O3 O2- 4 i 0.42270(4) 0.00986(3) -0.13967(2) 0.00786(7) 1 0
O4 O2- 4 i 0.57406(4) -0.00876(3) -0.36231(2) 0.00786(7) 1 0
O5 O2- 4 i 0.31969(5) -0.39932(3) -0.40915(3) 0.01399(10) 1 0
O6 O2- 4 i 0.18945(6) 0.14619(4) -0.12868(5) 0.02362(16) 1 0
O7 O2- 4 i 0.19699(5) -0.10102(3) -0.59549(3) 0.01457(11) 1 0
O8 O2- 4 i 0.18110(6) 0.14537(3) -0.61411(4) 0.01989(14) 1 0
O9 O2- 4 i 0.51175(4) -0.21900(3) -0.36403(3) 0.00992(8) 1 0
O10 O2- 4 i 0.49031(4) -0.18116(3) -0.60788(3) 0.01051(8) 1 0
O11 O2- 4 i 0.48586(4) 0.20589(3) -0.14730(3) 0.01005(8) 1 0
O12 O2- 4 i -0.00929(5) 0.30863(3) -0.60053(3) 0.01175(9) 1 0
O13 O2- 4 i 0.80853(5) -0.10689(3) -0.18835(3) 0.01259(9) 1 0
O14 O2- 4 i 0.19773(5) -0.13170(3) -0.78208(3) 0.01883(10) 1 0
O15 O2- 4 i 0.20389(5) 0.10417(3) -0.30921(3) 0.01425(9) 1 0
O16 O2- 4 i -0.18357(6) 0.13818(4) -0.71378(3) 0.02158(12) 1 0
loop_
_atom_site_aniso_label
_atom_site_aniso_type_symbol
_atom_site_aniso_U_11
_atom_site_aniso_U_22
_atom_site_aniso_U_33
_atom_site_aniso_U_12
_atom_site_aniso_U_13
_atom_site_aniso_U_23
Ca1 Ca2+ 0.0061(3) 0.0139(4) 0.0107(3) 0.0033(2) 0.0002(2) -0.0049(2)
Na1 Na1+ 0.0061(3) 0.0139(4) 0.0107(3) 0.0033(2) 0.0002(2) -0.0049(2)
Ca2 Ca2+ 0.0071(3) 0.0382(6) 0.0153(4) -0.0072(3) 0.0055(3) -0.0166(4)
Na2 Na1+ 0.0071(3) 0.0382(6) 0.0153(4) -0.0072(3) 0.0055(3) -0.0166(4)
Ca3 Ca2+ 0.00654(17) 0.0134(2) 0.00927(19) 0.00258(14) 0.00146(15) -0.00305(16)
Na3 Na1+ 0.00654(17) 0.0134(2) 0.00927(19) 0.00258(14) 0.00146(15) -0.00305(16)
Ca4 Ca2+ 0.0026(5) 0.0318(11) 0.0070(5) 0.0010(5) 0.0012(4) -0.0082(6)
Na4 Na1+ 0.0026(5) 0.0318(11) 0.0070(5) 0.0010(5) 0.0012(4) -0.0082(6)
Si1 Si4+ 0.00450(11) 0.00618(15) 0.00367(11) -0.00134(9) 0.00164(9) -0.00017(9)
Al1 Al3+ 0.00450(11) 0.00618(15) 0.00367(11) -0.00134(9) 0.00164(9) -0.00017(9)
Al2 Al3+ 0.00590(13) 0.00660(17) 0.00363(13) 0.00179(11) 0.00197(11)
-0.00033(10)
Si2 Si4+ 0.00590(13) 0.00660(17) 0.00363(13) 0.00179(11) 0.00197(11)
-0.00033(10)
Al3 Al3+ 0.00491(13) 0.00612(17) 0.00410(13) -0.00131(11) 0.00171(11)
0.00034(10)
Si3 Si4+ 0.00491(13) 0.00612(17) 0.00410(13) -0.00131(11) 0.00171(11)
0.00034(10)
Si4 Si4+ 0.00469(11) 0.00627(15) 0.00318(11) 0.00221(9) 0.00148(9) -0.00020(9)
Al4 Al3+ 0.00469(11) 0.00627(15) 0.00318(11) 0.00221(9) 0.00148(9) -0.00020(9)
Al5 Al3+ 0.00428(13) 0.00505(17) 0.00782(15) 0.00009(10) 0.00144(11)
-0.00014(11)
Si5 Si4+ 0.00428(13) 0.00505(17) 0.00782(15) 0.00009(10) 0.00144(11)
-0.00014(11)
Si6 Si4+ 0.00432(12) 0.00427(14) 0.00781(13) 0.00047(9) 0.00103(10) 0.00079(9)
Al6 Al3+ 0.00432(12) 0.00427(14) 0.00781(13) 0.00047(9) 0.00103(10) 0.00079(9)
Si7 Si4+ 0.00427(11) 0.00465(14) 0.00854(13) -0.00006(9) 0.00163(10) -0.00086(9)
Al7 Al3+ 0.00427(11) 0.00465(14) 0.00854(13) -0.00006(9) 0.00163(10) -0.00086(9)
Al8 Al3+ 0.00434(13) 0.00538(16) 0.00674(14) 0.00008(10) 0.00226(11) 0.00103(10)
Si8 Si4+ 0.00434(13) 0.00538(16) 0.00674(14) 0.00008(10) 0.00226(11) 0.00103(10)
O1 O2- 0.02185(15) 0.01337(15) 0.00772(11) 0.00095(11) 0.00888(11) 0.00046(9)
O2 O2- 0.02695(18) 0.01497(16) 0.00915(12) 0.00484(12) 0.01190(12) 0.00288(9)
O3 O2- 0.00666(9) 0.00713(12) 0.00910(10) 0.00178(7) 0.00258(8) 0.00242(7)
O4 O2- 0.00654(9) 0.00692(12) 0.00863(10) -0.00148(7) 0.00209(8) 0.00005(7)
O5 O2- 0.01017(11) 0.01019(14) 0.02391(16) -0.00394(9) 0.01037(11) -0.00390(11)
O6 O2- 0.01413(14) 0.01337(17) 0.0493(3) -0.00167(11) 0.02084(17) -0.00901(16)
O7 O2- 0.01206(12) 0.00886(14) 0.02741(17) -0.00227(9) 0.01360(12) -0.00334(11)
O8 O2- 0.01404(14) 0.01407(17) 0.0385(2) 0.00144(11) 0.01851(16) -0.00303(14)
O9 O2- 0.01017(11) 0.00922(13) 0.01042(11) -0.00140(8) 0.00476(9) -0.00037(8)
O10 O2- 0.00869(10) 0.01143(13) 0.00891(11) 0.00421(8) 0.00164(8) -0.00047(8)
O11 O2- 0.00872(10) 0.00920(13) 0.01053(11) -0.00316(8) 0.00294(8) -0.00052(8)
O12 O2- 0.01344(12) 0.00982(13) 0.00839(11) 0.00390(9) 0.00172(9) -0.00180(8)
O13 O2- 0.01008(11) 0.01057(14) 0.01030(11) 0.00089(9) -0.00177(9) 0.00088(9)
O14 O2- 0.01125(13) 0.01240(16) 0.01786(15) 0.00262(10) -0.00636(10)
-0.00673(11)
O15 O2- 0.01218(12) 0.00890(14) 0.01111(12) 0.00100(9) -0.00453(9) 0.00059(9)
O16 O2- 0.01408(14) 0.01559(18) 0.01827(16) 0.00330(11) -0.00742(12)
-0.00578(12)
#End of TTdata_263481-ICSD