
#(C) 2019 by FIZ Karlsruhe - Leibniz Institute for Information Infrastructure.  All rights reserved.
data_263479-ICSD
_database_code_ICSD 263479
_audit_creation_date 2018-08-01
_chemical_name_systematic
'Calcium sodium aluminium silicate (0.67/0.33/1.67/2.33)'
_chemical_formula_structural 'Ca0.67 Na0.33 Al1.67 Si2.33 O8'
_chemical_formula_sum 'Al1.67 Ca0.67 Na0.33 O8 Si2.33'
_chemical_name_structure_type Feldspar#-(TC,I1-,i28)-Bytownite
_chemical_name_mineral Plagioclase
_exptl_crystal_density_diffrn 2.72
_cell_measurement_temperature 100.
_publ_section_title

;
Revisiting the I anti 1 structures of high-temperature Ca-rich plagioclase
feldspar - a single-crystal neutron and X-ray diffraction study
;
loop_
_citation_id
_citation_journal_full
_citation_year
_citation_journal_volume
_citation_page_first
_citation_page_last
_citation_journal_id_ASTM
primary

;
Acta Crystallographica, Section B: Structural Science, Crystal Engineering and
Materials
; 2018 74 152 164 ACSBDA
loop_
_publ_author_name
'Jin, Shiyun'
'Wang, Xiaoping'
'Xu, Huifang'
_cell_length_a 8.16180(10)
_cell_length_b 12.8632(2)
_cell_length_c 14.1898(2)
_cell_angle_alpha 93.5211(15)
_cell_angle_beta 116.1167(11)
_cell_angle_gamma 90.5754(9)
_cell_volume 1333.97
_cell_formula_units_Z 8
_symmetry_space_group_name_H-M 'I -1'
_symmetry_Int_Tables_number 2
_refine_ls_R_factor_all 0.0334
loop_
_symmetry_equiv_pos_site_id
_symmetry_equiv_pos_as_xyz
1 '-x, -y, -z'
2 'x, y, z'
3 '-x+1/2, -y+1/2, -z+1/2'
4 'x+1/2, y+1/2, z+1/2'
loop_
_atom_type_symbol
_atom_type_oxidation_number
Ca2+ 2
Na1+ 1
Ca2+ 2
Na1+ 1
Ca2+ 2
Na1+ 1
Ca2+ 2
Na1+ 1
Si4+ 4
Al3+ 3
Si4+ 4
Al3+ 3
Si4+ 4
Al3+ 3
Si4+ 4
Al3+ 3
Si4+ 4
Al3+ 3
Si4+ 4
O2- -2
loop_
_atom_site_label
_atom_site_type_symbol
_atom_site_symmetry_multiplicity
_atom_site_Wyckoff_symbol
_atom_site_fract_x
_atom_site_fract_y
_atom_site_fract_z
_atom_site_B_iso_or_equiv
_atom_site_occupancy
_atom_site_attached_hydrogens
Ca1 Ca2+ 4 i 0.77397(13) -0.46573(8) -0.45429(7) 0.0137(3) 0.3189 0
Na1 Na1+ 4 i 0.77397(13) -0.46573(8) -0.45429(7) 0.0137(3) 0.1784 0
Ca2 Ca2+ 4 i 0.76679(14) -0.51782(11) -0.41326(8) 0.0252(4) 0.3211 0
Na2 Na1+ 4 i 0.76679(14) -0.51782(11) -0.41326(8) 0.0252(4) 0.1816 0
Ca3 Ca2+ 4 i 0.26819(9) 0.02949(6) -0.45215(5) 0.0138(2) 0.499 0
Na3 Na1+ 4 i 0.26819(9) 0.02949(6) -0.45215(5) 0.0138(2) 0.236 0
Ca4 Ca2+ 4 i 0.2643(2) 0.9877(2) -0.41674(14) 0.0194(7) 0.201 0
Na4 Na1+ 4 i 0.2643(2) 0.9877(2) -0.41674(14) 0.0194(7) 0.064 0
Si1 Si4+ 4 i -0.50745(7) 0.33990(4) -0.60505(4) 0.00790(17) 0.8319 0
Al1 Al3+ 4 i -0.50745(7) 0.33990(4) -0.60505(4) 0.00790(17) 0.1681 0
Al2 Al3+ 4 i -0.49941(7) 0.31560(4) -0.38215(4) 0.00769(18) 0.7454 0
Si2 Si4+ 4 i -0.49941(7) 0.31560(4) -0.38215(4) 0.00769(18) 0.2546 0
Al3 Al3+ 4 i 0.00419(7) 0.16414(4) -0.39008(4) 0.00793(18) 0.7538 0
Si3 Si4+ 4 i 0.00419(7) 0.16414(4) -0.39008(4) 0.00793(18) 0.2462 0
Si4 Si4+ 4 i 0.00458(7) 0.81711(4) -0.38657(3) 0.00774(17) 0.8691 0
Al4 Al3+ 4 i 0.00458(7) 0.81711(4) -0.38657(3) 0.00774(17) 0.1309 0
Al5 Al3+ 4 i -0.81316(7) 0.61041(4) -0.34246(4) 0.00810(18) 0.6471 0
Si5 Si4+ 4 i -0.81316(7) 0.61041(4) -0.34246(4) 0.00810(18) 0.3528 0
Si6 Si4+ 4 i -0.82226(7) 0.38067(4) -0.31940(4) 0.00799(17) 0.858 0
Al6 Al3+ 4 i -0.82226(7) 0.38067(4) -0.31940(4) 0.00799(17) 0.142 0
Si7 Si4+ 4 i -0.31976(7) 0.10647(4) -0.34164(4) 0.00885(18) 0.9368 0
Al7 Al3+ 4 i -0.31976(7) 0.10647(4) -0.34164(4) 0.00885(18) 0.0632 0
Al8 Al3+ 4 i -0.81780(7) 0.37640(4) -0.82290(4) 0.00747(18) 0.6895 0
Si8 Si4+ 4 i -0.81780(7) 0.37640(4) -0.82290(4) 0.00747(18) 0.3105 0
O1 O2- 4 i 0.50757(19) -0.37221(11) -0.50926(9) 0.0159(5) 1 0
O2 O2- 4 i -0.0025(2) 0.12724(11) -0.51146(9) 0.0177(5) 1 0
O3 O2- 4 i 0.42185(17) 0.00931(10) -0.13946(9) 0.0107(4) 1 0
O4 O2- 4 i 0.57577(17) -0.00883(10) -0.36195(9) 0.0109(4) 1 0
O5 O2- 4 i 0.31797(19) -0.39843(11) -0.40826(10) 0.0157(5) 1 0
O6 O2- 4 i 0.19500(19) -0.10175(11) -0.59472(11) 0.0168(5) 1 0
O7 O2- 4 i 0.1888(2) 0.14681(12) -0.12666(12) 0.0223(6) 1 0
O8 O2- 4 i 0.18118(20) 0.14621(12) -0.61668(12) 0.0213(6) 1 0
O9 O2- 4 i 0.51219(18) -0.21662(11) -0.36235(9) 0.0139(5) 1 0
O10 O2- 4 i 0.48982(18) -0.18268(11) -0.60767(9) 0.0147(5) 1 0
O11 O2- 4 i 0.48613(18) 0.20653(11) -0.14604(9) 0.0134(5) 1 0
O12 O2- 4 i -0.01034(19) 0.30967(11) -0.60198(10) 0.0156(5) 1 0
O13 O2- 4 i 0.80649(18) -0.10711(11) -0.18954(10) 0.0143(5) 1 0
O14 O2- 4 i 0.19538(20) -0.13222(11) -0.78228(11) 0.0193(5) 1 0
O15 O2- 4 i 0.20203(19) 0.10479(11) -0.30843(10) 0.0155(5) 1 0
O16 O2- 4 i -0.1860(2) 0.13676(12) -0.71409(11) 0.0214(5) 1 0
loop_
_atom_site_aniso_label
_atom_site_aniso_type_symbol
_atom_site_aniso_U_11
_atom_site_aniso_U_22
_atom_site_aniso_U_33
_atom_site_aniso_U_12
_atom_site_aniso_U_13
_atom_site_aniso_U_23
Ca1 Ca2+ 0.0087(4) 0.0175(5) 0.0114(4) 0.0036(4) 0.0020(3) -0.0050(4)
Na1 Na1+ 0.0087(4) 0.0175(5) 0.0114(4) 0.0036(4) 0.0020(3) -0.0050(4)
Ca2 Ca2+ 0.0106(5) 0.0476(8) 0.0166(5) -0.0077(5) 0.0079(4) -0.0174(5)
Na2 Na1+ 0.0106(5) 0.0476(8) 0.0166(5) -0.0077(5) 0.0079(4) -0.0174(5)
Ca3 Ca2+ 0.0079(3) 0.0187(4) 0.0110(3) 0.0037(3) 0.0017(2) -0.0066(3)
Na3 Na1+ 0.0079(3) 0.0187(4) 0.0110(3) 0.0037(3) 0.0017(2) -0.0066(3)
Ca4 Ca2+ 0.0078(8) 0.0457(14) 0.0057(7) -0.0056(8) 0.0052(6) -0.0063(8)
Na4 Na1+ 0.0078(8) 0.0457(14) 0.0057(7) -0.0056(8) 0.0052(6) -0.0063(8)
Si1 Si4+ 0.0084(2) 0.0106(3) 0.0049(2) -0.00172(19) 0.00327(18) 0.00051(17)
Al1 Al3+ 0.0084(2) 0.0106(3) 0.0049(2) -0.00172(19) 0.00327(18) 0.00051(17)
Al2 Al3+ 0.0084(3) 0.0107(3) 0.0038(2) 0.0028(2) 0.00258(19) -0.00021(18)
Si2 Si4+ 0.0084(3) 0.0107(3) 0.0038(2) 0.0028(2) 0.00258(19) -0.00021(18)
Al3 Al3+ 0.0083(3) 0.0100(3) 0.0055(2) -0.0017(2) 0.00313(19) 0.00059(18)
Si3 Si4+ 0.0083(3) 0.0100(3) 0.0055(2) -0.0017(2) 0.00313(19) 0.00059(18)
Si4 Si4+ 0.0083(2) 0.0110(3) 0.0039(2) 0.00276(19) 0.00259(18) -0.00001(17)
Al4 Al3+ 0.0083(2) 0.0110(3) 0.0039(2) 0.00276(19) 0.00259(18) -0.00001(17)
Al5 Al3+ 0.0078(3) 0.0077(3) 0.0083(2) 0.00068(19) 0.00299(19) 0.00039(18)
Si5 Si4+ 0.0078(3) 0.0077(3) 0.0083(2) 0.00068(19) 0.00299(19) 0.00039(18)
Si6 Si4+ 0.0077(2) 0.0078(3) 0.0076(2) 0.00030(18) 0.00253(18) 0.00103(17)
Al6 Al3+ 0.0077(2) 0.0078(3) 0.0076(2) 0.00030(18) 0.00253(18) 0.00103(17)
Si7 Si4+ 0.0086(2) 0.0079(2) 0.0091(2) 0.00038(19) 0.00325(19) -0.00061(17)
Al7 Al3+ 0.0086(2) 0.0079(2) 0.0091(2) 0.00038(19) 0.00325(19) -0.00061(17)
Al8 Al3+ 0.0071(3) 0.0087(3) 0.0066(2) 0.00002(20) 0.00299(19) 0.00118(18)
Si8 Si4+ 0.0071(3) 0.0087(3) 0.0066(2) 0.00002(20) 0.00299(19) 0.00118(18)
O1 O2- 0.0231(8) 0.0195(7) 0.0077(6) 0.0014(6) 0.0092(6) 0.0009(5)
O2 O2- 0.0270(8) 0.0224(8) 0.0074(6) 0.0043(6) 0.0108(6) 0.0031(5)
O3 O2- 0.0116(6) 0.0109(6) 0.0091(5) 0.0011(5) 0.0040(5) 0.0024(5)
O4 O2- 0.0113(6) 0.0111(6) 0.0092(5) -0.0014(5) 0.0036(5) 0.0003(5)
O5 O2- 0.0157(7) 0.0136(7) 0.0202(7) -0.0031(5) 0.0106(6) -0.0024(5)
O6 O2- 0.0175(7) 0.0136(7) 0.0233(7) -0.0004(6) 0.0131(6) -0.0014(5)
O7 O2- 0.0181(7) 0.0173(8) 0.0359(8) -0.0009(6) 0.0170(7) -0.0060(6)
O8 O2- 0.0164(7) 0.0194(8) 0.0320(8) 0.0017(6) 0.0150(6) -0.0036(6)
O9 O2- 0.0143(7) 0.0158(7) 0.0120(6) -0.0024(5) 0.0062(5) 0.0010(5)
O10 O2- 0.0127(7) 0.0185(7) 0.0096(6) 0.0053(5) 0.0021(5) -0.0020(5)
O11 O2- 0.0140(7) 0.0147(7) 0.0101(6) -0.0038(5) 0.0041(5) 0.0003(5)
O12 O2- 0.0174(7) 0.0152(7) 0.0099(6) 0.0043(5) 0.0024(5) -0.0026(5)
O13 O2- 0.0135(7) 0.0144(7) 0.0099(6) 0.0005(5) 0.0004(5) 0.0008(5)
O14 O2- 0.0146(7) 0.0179(7) 0.0145(6) 0.0023(6) -0.0026(5) -0.0054(5)
O15 O2- 0.0151(7) 0.0139(7) 0.0098(6) -0.0001(5) -0.0016(5) 0.0006(5)
O16 O2- 0.0166(7) 0.0203(8) 0.0151(6) 0.0038(6) -0.0034(6) -0.0039(6)
#End of TTdata_263479-ICSD