
#(C) 2019 by FIZ Karlsruhe - Leibniz Institute for Information Infrastructure.  All rights reserved.
data_264368-ICSD
_database_code_ICSD 264368
_audit_creation_date 2019-02-01
_chemical_name_systematic 'Sodium diuranium(IV) nonafluoride'
_chemical_formula_structural 'Na U2 F9'
_chemical_formula_sum 'F9 Na1 U2'
_chemical_name_structure_type NaNp2F9
_exptl_crystal_density_diffrn 6.61
_cell_measurement_temperature 300.
_publ_section_title

;
Synthetic strategies for the synthesis of ternary uranium(IV) and thorium(IV)
fluorides
;
loop_
_citation_id
_citation_journal_full
_citation_year
_citation_journal_volume
_citation_page_first
_citation_page_last
_citation_journal_id_ASTM
primary 'Inorganic Chemistry' 2018 57 5597 5606 INOCAJ
loop_
_publ_author_name
'Klepov, Vladislav V.'
'Felder, Justin B.'
'Zur Loye, Hans-Conrad'
_cell_length_a 8.6362(2)
_cell_length_b 11.1390(3)
_cell_length_c 6.9996(2)
_cell_angle_alpha 90
_cell_angle_beta 90
_cell_angle_gamma 90
_cell_volume 673.35
_cell_formula_units_Z 4
_symmetry_space_group_name_H-M 'P n m a'
_symmetry_Int_Tables_number 62
_refine_ls_R_factor_all 0.0132
loop_
_symmetry_equiv_pos_site_id
_symmetry_equiv_pos_as_xyz
1 'x+1/2, y, -z+1/2'
2 'x, -y+1/2, z'
3 '-x+1/2, y+1/2, z+1/2'
4 '-x, -y, -z'
5 '-x+1/2, -y, z+1/2'
6 '-x, y+1/2, -z'
7 'x+1/2, -y+1/2, -z+1/2'
8 'x, y, z'
loop_
_atom_type_symbol
_atom_type_oxidation_number
U4+ 4
F1- -1
Na1+ 1
loop_
_atom_site_label
_atom_site_type_symbol
_atom_site_symmetry_multiplicity
_atom_site_Wyckoff_symbol
_atom_site_fract_x
_atom_site_fract_y
_atom_site_fract_z
_atom_site_B_iso_or_equiv
_atom_site_occupancy
_atom_site_attached_hydrogens
U1 U4+ 8 d 0.67280(2) 0.54825(2) 0.16072(2) 0.00818(8) 1 0
F1 F1- 4 c 0.6713(4) 0.75 0.1673(4) 0.0167(8) 1 0
F2 F1- 8 d 0.6987(3) 0.6015(2) 0.4854(3) 0.0144(5) 1 0
F3 F1- 8 d 0.5003(3) 0.6034(2) -0.0812(3) 0.0150(5) 1 0
F4 F1- 8 d 0.7075(3) 0.3891(2) 0.3648(3) 0.0162(5) 1 0
F5 F1- 8 d 0.9310(3) 0.5831(3) 0.2082(3) 0.0183(5) 1 0
Na1 Na1+ 4 c 0.4388(6) 0.25 0.3245(5) 0.0659(13) 1 0
loop_
_atom_site_aniso_label
_atom_site_aniso_type_symbol
_atom_site_aniso_U_11
_atom_site_aniso_U_22
_atom_site_aniso_U_33
_atom_site_aniso_U_12
_atom_site_aniso_U_13
_atom_site_aniso_U_23
U1 U4+ 0.00708(10) 0.00944(11) 0.00801(10) -0.00023(5) -0.00037(5) 0.00009(5)
F1 F1- 0.023(2) 0.0081(18) 0.0185(19) 0. -0.0005(13) 0.
F2 F1- 0.0169(12) 0.0131(13) 0.0131(11) 0.0021(10) -0.0026(9) 0.0005(10)
F3 F1- 0.0159(12) 0.0125(13) 0.0167(12) -0.0025(10) -0.0034(9) 0.0031(9)
F4 F1- 0.0204(13) 0.0134(13) 0.0149(11) -0.0011(10) -0.0036(9) 0.0012(10)
F5 F1- 0.0118(12) 0.0260(14) 0.0171(12) -0.0037(11) -0.0068(10) 0.0025(11)
Na1 Na1+ 0.124(4) 0.0198(18) 0.054(2) 0. 0.051(2) 0.
#End of TTdata_264368-ICSD