
#(C) 2019 by FIZ Karlsruhe - Leibniz Institute for Information Infrastructure.  All rights reserved.
data_264367-ICSD
_database_code_ICSD 264367
_audit_creation_date 2019-02-01
_chemical_name_systematic 'Heptasodium hexauranium(IV) fluoride'
_chemical_formula_structural 'Na7 U6 F31'
_chemical_formula_sum 'F31 Na7 U6'
_exptl_crystal_density_diffrn 5.89
_cell_measurement_temperature 302.
_publ_section_title

;
Synthetic strategies for the synthesis of ternary uranium(IV) and thorium(IV)
fluorides
;
loop_
_citation_id
_citation_journal_full
_citation_year
_citation_journal_volume
_citation_page_first
_citation_page_last
_citation_journal_id_ASTM
primary 'Inorganic Chemistry' 2018 57 5597 5606 INOCAJ
loop_
_publ_author_name
'Klepov, Vladislav V.'
'Felder, Justin B.'
'Zur Loye, Hans-Conrad'
_cell_length_a 14.7342(3)
_cell_length_b 14.7342(3)
_cell_length_c 9.7973(2)
_cell_angle_alpha 90
_cell_angle_beta 90
_cell_angle_gamma 120
_cell_volume 1842.
_cell_formula_units_Z 3
_symmetry_space_group_name_H-M 'R -3 H'
_symmetry_Int_Tables_number 148
_refine_ls_R_factor_all 0.0118
loop_
_symmetry_equiv_pos_site_id
_symmetry_equiv_pos_as_xyz
1 'x-y, x, -z'
2 'y, -x+y, -z'
3 '-x, -y, -z'
4 '-x+y, -x, z'
5 '-y, x-y, z'
6 'x, y, z'
7 'x-y+2/3, x+1/3, -z+1/3'
8 'y+2/3, -x+y+1/3, -z+1/3'
9 '-x+2/3, -y+1/3, -z+1/3'
10 '-x+y+2/3, -x+1/3, z+1/3'
11 '-y+2/3, x-y+1/3, z+1/3'
12 'x+2/3, y+1/3, z+1/3'
13 'x-y+1/3, x+2/3, -z+2/3'
14 'y+1/3, -x+y+2/3, -z+2/3'
15 '-x+1/3, -y+2/3, -z+2/3'
16 '-x+y+1/3, -x+2/3, z+2/3'
17 '-y+1/3, x-y+2/3, z+2/3'
18 'x+1/3, y+2/3, z+2/3'
loop_
_atom_type_symbol
_atom_type_oxidation_number
U4+ 4
Na1+ 1
F1- -1
loop_
_atom_site_label
_atom_site_type_symbol
_atom_site_symmetry_multiplicity
_atom_site_Wyckoff_symbol
_atom_site_fract_x
_atom_site_fract_y
_atom_site_fract_z
_atom_site_B_iso_or_equiv
_atom_site_occupancy
_atom_site_attached_hydrogens
U1 U4+ 18 f 0.47393(2) 0.61760(2) 0.48102(2) 0.01519(5) 1 0
Na1 Na1+ 18 f 0.40857(14) 0.44000(14) 0.16346(17) 0.0333(4) 1 0
Na2 Na1+ 3 b 0.333333 0.666667 0.166667 0.0577(15) 1 0
F1 F1- 18 f 0.42114(17) 0.44315(17) 0.4207(2) 0.0247(5) 1 0
F2 F1- 18 f 0.46517(19) 0.61032(18) 0.2569(2) 0.0305(5) 1 0
F3 F1- 18 f 0.4604(3) 0.7597(2) 0.4276(3) 0.0493(8) 1 0
F4 F1- 18 f 0.63360(17) 0.7288(2) 0.4141(3) 0.0309(5) 1 0
F5 F1- 18 f 0.3854(2) 0.5083(2) 0.6647(3) 0.0417(7) 1 0
F6 F1- 18 f 0.317(2) 0.6146(19) 0.639(3) 0.030(8) 0.101(8) 0
F7 F1- 6 c 0.333333 0.666667 0.573(3) 0.040(11) 0.20(2) 0
loop_
_atom_site_aniso_label
_atom_site_aniso_type_symbol
_atom_site_aniso_U_11
_atom_site_aniso_U_22
_atom_site_aniso_U_33
_atom_site_aniso_U_12
_atom_site_aniso_U_13
_atom_site_aniso_U_23
U1 U4+ 0.01664(7) 0.01352(7) 0.01503(7) 0.00726(5) 0.00043(5) 0.00060(4)
Na1 Na1+ 0.0378(10) 0.0322(9) 0.0221(8) 0.0117(8) -0.0089(7) -0.0057(7)
Na2 Na1+ 0.068(2) 0.068(2) 0.038(3) 0.0338(12) 0. 0.
F1 F1- 0.0261(12) 0.0192(11) 0.0321(12) 0.0138(9) -0.0143(9) -0.0079(9)
F2 F1- 0.0375(14) 0.0269(12) 0.0173(11) 0.0087(11) -0.0010(10) -0.0021(9)
F3 F1- 0.073(2) 0.0415(16) 0.0576(19) 0.0470(17) -0.0061(16) -0.0038(14)
F4 F1- 0.0189(11) 0.0371(14) 0.0293(13) 0.0084(10) 0.0021(10) 0.0082(11)
F5 F1- 0.0410(15) 0.0456(16) 0.0266(13) 0.0127(13) 0.0151(12) 0.0098(12)
#End of TTdata_264367-ICSD