
#(C) 2019 by FIZ Karlsruhe - Leibniz Institute for Information Infrastructure.  All rights reserved.
data_264483-ICSD
_database_code_ICSD 264483
_audit_creation_date 2019-02-01
_chemical_name_systematic
'Sodium pentacopper(II) dioxide diselenate(IV) trichloride'
_chemical_formula_structural 'Na (Cu5 O2) (Se O3)2 Cl3'
_chemical_formula_sum 'Cl3 Cu5 Na1 O8 Se2'
_chemical_name_mineral Ilinskite
_exptl_crystal_density_diffrn 4.06
_cell_measurement_temperature 293.
_publ_section_title

;
Emulating exhalative chemistry: synthesis and structural characterization of
ilinskite, Na[Cu5O2](SeO3)2Cl3, and its K-analogue
;
loop_
_citation_id
_citation_journal_full
_citation_year
_citation_journal_volume
_citation_page_first
_citation_page_last
_citation_journal_id_ASTM
primary 'Mineralogy and Petrology' 2015 109 421 430 MIPEE9
loop_
_publ_author_name
'Kovrugin, Vadim M.'
'Siidra, Oleg I.'
'Colmont, Marie'
'Mentre, Olivier'
'Krivovichev, Sergey V.'
_cell_length_a 17.7489(18)
_cell_length_b 6.4412(6)
_cell_length_c 10.4880(12)
_cell_angle_alpha 90.
_cell_angle_beta 90.
_cell_angle_gamma 90.
_cell_volume 1199.03
_cell_formula_units_Z 4
_symmetry_space_group_name_H-M 'P n m a'
_symmetry_Int_Tables_number 62
_refine_ls_R_factor_all 0.049
loop_
_symmetry_equiv_pos_site_id
_symmetry_equiv_pos_as_xyz
1 'x+1/2, y, -z+1/2'
2 'x, -y+1/2, z'
3 '-x+1/2, y+1/2, z+1/2'
4 '-x, -y, -z'
5 '-x+1/2, -y, z+1/2'
6 '-x, y+1/2, -z'
7 'x+1/2, -y+1/2, -z+1/2'
8 'x, y, z'
loop_
_atom_type_symbol
_atom_type_oxidation_number
Na1+ 1
Cu2+ 2
Se4+ 4
Cl1- -1
O2- -2
loop_
_atom_site_label
_atom_site_type_symbol
_atom_site_symmetry_multiplicity
_atom_site_Wyckoff_symbol
_atom_site_fract_x
_atom_site_fract_y
_atom_site_fract_z
_atom_site_B_iso_or_equiv
_atom_site_occupancy
_atom_site_attached_hydrogens
Na1 Na1+ 4 c 0.4076(3) 0.25 0.7359(5) 0.0502(15) 1. 0
Cu1 Cu2+ 4 c 0.59928(6) 0.25 0.49980(11) 0.0123(3) 1. 0
Cu2 Cu2+ 4 c 0.63266(7) 0.25 -0.00159(11) 0.0135(3) 1. 0
Cu3 Cu2+ 4 c 0.71861(7) 0.25 0.27544(11) 0.0131(3) 1. 0
Cu4 Cu2+ 8 d 0.73701(5) 0.00171(13) 0.53098(8) 0.01442(19) 1. 0
Se1 Se4+ 4 c 0.43047(6) 0.25 0.42166(9) 0.0106(2) 1. 0
Se2 Se4+ 4 c 0.61514(5) 0.75 -0.08525(9) 0.0101(2) 1. 0
Cl1 Cl1- 4 c 0.58643(15) 0.25 0.2508(3) 0.0261(6) 1. 0
Cl2 Cl1- 4 c 0.53659(16) 0.25 -0.1356(3) 0.0375(8) 1. 0
Cl3 Cl1- 4 c 0.75484(16) 0.25 0.7729(3) 0.0330(7) 1. 0
O1 O2- 4 c 0.7730(3) 0.75 0.5958(5) 0.0088(13) 1. 0
O2 O2- 4 c 0.7041(3) 0.25 0.4551(6) 0.0089(13) 1. 0
O3 O2- 8 d 0.6516(2) -0.0522(6) 0.0075(4) 0.0124(10) 1. 0
O4 O2- 4 c 0.4939(3) 0.25 0.5421(6) 0.0149(15) 1. 0
O5 O2- 4 c 0.6697(4) 0.75 -0.2131(6) 0.0168(15) 1. 0
O6 O2- 8 d 0.3753(2) 0.0508(6) 0.4727(5) 0.0187(11) 1. 0
#End of TTdata_264483-ICSD