
#(C) 2019 by FIZ Karlsruhe - Leibniz Institute for Information Infrastructure.  All rights reserved.
data_264751-ICSD
_database_code_ICSD 264751
_audit_creation_date 2019-02-01
_chemical_name_systematic
'Sodium barium niobium titanium oxide (0.97/0.03/0.97/0.03/3) - NNBTx'
_chemical_formula_structural '(Na0.97 Ba0.03) (Nb0.97 Ti0.03) O3'
_chemical_formula_sum 'Ba0.03 Na0.97 Nb0.97 O3 Ti0.03'
_chemical_name_structure_type CaTaO2N
_exptl_crystal_density_diffrn 4.63
_cell_measurement_temperature 6.
_publ_section_title

;
Evidence for existence of functional monoclinic phase in sodium niobate based
solid solution by powder neutron diffraction
;
loop_
_citation_id
_citation_journal_full
_citation_year
_citation_journal_volume
_citation_page_first
_citation_page_last
_citation_journal_id_ASTM
primary 'Applied Physics Letters' 2018 112 182905-1 182905-5 APPLAB
loop_
_publ_author_name
'Mishra, S.K.'
'Jauhari, Mrinal'
'Mittal, R.'
'Krishna, P.S.R.'
'Reddy, V.R.'
'Chaplot, S.L.'
_cell_length_a 7.7681(1)
_cell_length_b 5.5191(2)
_cell_length_c 5.5571(1)
_cell_angle_alpha 90.
_cell_angle_beta 90.
_cell_angle_gamma 90.
_cell_volume 238.25
_cell_formula_units_Z 4
_symmetry_space_group_name_H-M 'P m c 21'
_symmetry_Int_Tables_number 26
_refine_ls_R_factor_all 0.0278
loop_
_symmetry_equiv_pos_site_id
_symmetry_equiv_pos_as_xyz
1 'x, -y, z+1/2'
2 '-x, -y, z+1/2'
3 '-x, y, z'
4 'x, y, z'
loop_
_atom_type_symbol
_atom_type_oxidation_number
Na1+ 1
Ba2+ 2
Na1+ 1
Ba2+ 2
Nb5+ 5
Ti4+ 4
O2- -2
loop_
_atom_site_label
_atom_site_type_symbol
_atom_site_symmetry_multiplicity
_atom_site_Wyckoff_symbol
_atom_site_fract_x
_atom_site_fract_y
_atom_site_fract_z
_atom_site_B_iso_or_equiv
_atom_site_occupancy
_atom_site_attached_hydrogens
Na1 Na1+ 2 a 0 0.240(1) 0.269(3) 0.03(3) 0.97 0
Ba1 Ba2+ 2 a 0 0.240(1) 0.269(3) 0.03(3) 0.03 0
Na2 Na1+ 2 b 0.5 0.7684(4) 0.7854(2) 0.04(1) 0.97 0
Ba2 Ba2+ 2 b 0.5 0.7684(4) 0.7854(2) 0.04(1) 0.03 0
Nb1 Nb5+ 4 c 0.7506(7) 0.7533(5) 0.2477(3) 0.04(2) 0.97 0
Ti1 Ti4+ 4 c 0.7506(7) 0.7533(5) 0.2477(3) 0.04(2) 0.03 0
O1 O2- 2 a 0 0.216(3) 0.7304(6) 0.50(2) 1. 0
O2 O2- 2 b 0.5 0.260(3) 0.3213(6) 0.26(4) 1. 0
O3 O2- 4 c 0.225(3) 0.494(4) 0.109(6) 0.38(3) 1. 0
O4 O2- 4 c 0.287(1) 0.0152(3) 0.000(3) 0.08(2) 1. 0
#End of TTdata_264751-ICSD