
#(C) 2019 by FIZ Karlsruhe - Leibniz Institute for Information Infrastructure.  All rights reserved.
data_264726-ICSD
_database_code_ICSD 264726
_audit_creation_date 2019-02-01
_chemical_name_systematic 'Sodium tungsten oxide (0.821/1/3)'
_chemical_formula_structural 'Na0.821 W O3'
_chemical_formula_sum 'Na0.821 O3 W1'
_chemical_name_structure_type Perovskite-CaTiO3
_exptl_crystal_density_diffrn 7.29
_publ_section_title 'Synthesis of cubic sodium tungsten bronze NaxWO3 in air'
loop_
_citation_id
_citation_journal_full
_citation_year
_citation_journal_volume
_citation_page_first
_citation_page_last
_citation_journal_id_ASTM
primary 'Journal of the American Ceramic Society' 2018 101 4458 4462 JACTAW
loop_
_publ_author_name
'Li, Xuhai'
'Xie, Ruishi'
'Cao, Xiuxia'
'Liu, Lixin'
'Xu, Liang'
'Wang, Yuan'
'Meng, Chuammin'
'Wu, Qiang'
_cell_length_a 3.8517(3)
_cell_length_b 3.8517(3)
_cell_length_c 3.8517(3)
_cell_angle_alpha 90.
_cell_angle_beta 90.
_cell_angle_gamma 90.
_cell_volume 57.14
_cell_formula_units_Z 1
_symmetry_space_group_name_H-M 'P m -3 m'
_symmetry_Int_Tables_number 221
_refine_ls_R_factor_all 0.0364
loop_
_symmetry_equiv_pos_site_id
_symmetry_equiv_pos_as_xyz
1 'z, y, -x'
2 'y, x, -z'
3 'x, z, -y'
4 'z, x, -y'
5 'y, z, -x'
6 'x, y, -z'
7 'z, -y, x'
8 'y, -x, z'
9 'x, -z, y'
10 'z, -x, y'
11 'y, -z, x'
12 'x, -y, z'
13 '-z, y, x'
14 '-y, x, z'
15 '-x, z, y'
16 '-z, x, y'
17 '-y, z, x'
18 '-x, y, z'
19 '-z, -y, -x'
20 '-y, -x, -z'
21 '-x, -z, -y'
22 '-z, -x, -y'
23 '-y, -z, -x'
24 '-x, -y, -z'
25 '-z, -y, x'
26 '-y, -x, z'
27 '-x, -z, y'
28 '-z, -x, y'
29 '-y, -z, x'
30 '-x, -y, z'
31 '-z, y, -x'
32 '-y, x, -z'
33 '-x, z, -y'
34 '-z, x, -y'
35 '-y, z, -x'
36 '-x, y, -z'
37 'z, -y, -x'
38 'y, -x, -z'
39 'x, -z, -y'
40 'z, -x, -y'
41 'y, -z, -x'
42 'x, -y, -z'
43 'z, y, x'
44 'y, x, z'
45 'x, z, y'
46 'z, x, y'
47 'y, z, x'
48 'x, y, z'
loop_
_atom_type_symbol
_atom_type_oxidation_number
Na1+ 1
W5+ 5.18
O2- -2
loop_
_atom_site_label
_atom_site_type_symbol
_atom_site_symmetry_multiplicity
_atom_site_Wyckoff_symbol
_atom_site_fract_x
_atom_site_fract_y
_atom_site_fract_z
_atom_site_B_iso_or_equiv
_atom_site_occupancy
_atom_site_attached_hydrogens
Na1 Na1+ 1 a 0 0 0 0.928(1) 0.821 0
W1 W5+ 1 b 0.5001(6) 0.5002(8) 0.5004(7) 0.757(1) 1. 0
O1 O2- 3 c 0 0.4995(1) 0.4995(4) 1.563(3) 1. 0
#End of TTdata_264726-ICSD