
#(C) 2019 by FIZ Karlsruhe - Leibniz Institute for Information Infrastructure.  All rights reserved.
data_265070-ICSD
_database_code_ICSD 265070
_audit_creation_date 2019-02-01
_chemical_name_systematic 'Sodium lutetium ditungstate dihydrate'
_chemical_formula_structural 'Na Lu W2 O8 (H2 O)2'
_chemical_formula_sum 'H4 Lu1 Na1 O10 W2'
_exptl_crystal_density_diffrn 6.
_cell_measurement_temperature 300.
_publ_section_title

;
Crystal structure of NaLuW2O8.2H2O and down/upconversion luminescence of the
derived NaLu(WO4)2:Yb/Ln phosphors (Ln = Ho, Er, Tm)
;
loop_
_citation_id
_citation_journal_full
_citation_year
_citation_journal_volume
_citation_page_first
_citation_page_last
_citation_journal_id_ASTM
primary 'Inorganic Chemistry' 2018 57 10791 10801 INOCAJ
loop_
_publ_author_name
'Shi, Xiaofei'
'Molokeev, Maxim S.'
'Wang, Xuejiao'
'Wang, Zhihao'
'Zhu, Qi'
'Li, Ji-Guang'
_cell_length_a 21.6552(13)
_cell_length_b 5.13519(30)
_cell_length_c 3.63200(20)
_cell_angle_alpha 90
_cell_angle_beta 90
_cell_angle_gamma 90
_cell_volume 403.89
_cell_formula_units_Z 2
_symmetry_space_group_name_H-M 'C m m m'
_symmetry_Int_Tables_number 65
_refine_ls_R_factor_all 0.0812
loop_
_symmetry_equiv_pos_site_id
_symmetry_equiv_pos_as_xyz
1 'x, -y, z'
2 '-x, y, z'
3 'x, y, -z'
4 '-x, -y, -z'
5 '-x, y, -z'
6 'x, -y, -z'
7 '-x, -y, z'
8 'x, y, z'
9 'x+1/2, -y+1/2, z'
10 '-x+1/2, y+1/2, z'
11 'x+1/2, y+1/2, -z'
12 '-x+1/2, -y+1/2, -z'
13 '-x+1/2, y+1/2, -z'
14 'x+1/2, -y+1/2, -z'
15 '-x+1/2, -y+1/2, z'
16 'x+1/2, y+1/2, z'
loop_
_atom_type_symbol
_atom_type_oxidation_number
Lu3+ 3
W6+ 6
Na1+ 1
O2- -2
H1+ 1
loop_
_atom_site_label
_atom_site_type_symbol
_atom_site_symmetry_multiplicity
_atom_site_Wyckoff_symbol
_atom_site_fract_x
_atom_site_fract_y
_atom_site_fract_z
_atom_site_B_iso_or_equiv
_atom_site_occupancy
_atom_site_attached_hydrogens
Lu1 Lu3+ 2 d 0 0 0.5 0.668(50) 1 0
W1 W6+ 4 g 0.083063(70) 0.5 0 1.035(26) 1 0
Na1 Na1+ 4 e 0.25 0.25 0 1.77(52) 0.5 0
O1 O2- 4 h 0.21498(73) 0 0.5 2.54(23) 1 0
O2 O2- 4 h 0.08412(81) 0.5 0.5 2.54(23) 1 0
O3 O2- 4 i 0 0.2798(27) 0 2.54(23) 1 0
O4 O2- 4 g 0.15801(75) 0.5 0 2.54(23) 1 0
O5 O2- 4 h 0.09291(76) 0 0.5 2.54(23) 1 0
H1 H1+ 8 q 0.117 0.16 0.5 3.81(34) 1 0
#End of TTdata_265070-ICSD