
#(C) 2019 by FIZ Karlsruhe - Leibniz Institute for Information Infrastructure.  All rights reserved.
data_265012-ICSD
_database_code_ICSD 265012
_audit_creation_date 2019-02-01
_chemical_name_systematic
'Disodium dodecafluorido-closo-dodecaborate trihydrate'
_chemical_formula_structural 'Na2 (H2 O)3 (B12 F12)'
_chemical_formula_sum 'H6 B12 F12 Na2 O3'
_exptl_crystal_density_diffrn 2.02
_cell_measurement_temperature 130.
_publ_section_title

;
Latent porosity in alkali-metal M2B12F12 salts. Structures and rapid
room-temperature hydration/dehydration cycles
;
loop_
_citation_id
_citation_journal_full
_citation_year
_citation_journal_volume
_citation_page_first
_citation_page_last
_citation_journal_id_ASTM
primary 'Inorganic Chemistry' 2017 56 12023 12041 INOCAJ
loop_
_publ_author_name
'Peryshkov, Dmitry V.'
'Bukovsky, Eric V.'
'Lacroix, Matthew R.'
'Wu, Hui'
'Zhou, Wei'
'Jones, W. Matthew'
'Lozinsek, Matic'
'Folsom, Travis C.'
'Heyliger, D. Luke'
'Udovic, Terrence J.'
'Strauss, Steven H.'
_cell_length_a 10.2974(6)
_cell_length_b 10.3442(6)
_cell_length_c 14.1466(9)
_cell_angle_alpha 90
_cell_angle_beta 90
_cell_angle_gamma 90
_cell_volume 1506.87
_cell_formula_units_Z 4
_symmetry_space_group_name_H-M 'P 21 21 21'
_symmetry_Int_Tables_number 19
_refine_ls_R_factor_all 0.0339
loop_
_symmetry_equiv_pos_site_id
_symmetry_equiv_pos_as_xyz
1 '-x, y+1/2, -z+1/2'
2 'x+1/2, -y+1/2, -z'
3 '-x+1/2, -y, z+1/2'
4 'x, y, z'
loop_
_atom_type_symbol
_atom_type_oxidation_number
Na1+ 1
B0+ 0.833
F1- -1
O2- -2
H1+ 1
O2- -2
H1+ 1
O2- -2
H1+ 1
loop_
_atom_site_label
_atom_site_type_symbol
_atom_site_symmetry_multiplicity
_atom_site_Wyckoff_symbol
_atom_site_fract_x
_atom_site_fract_y
_atom_site_fract_z
_atom_site_B_iso_or_equiv
_atom_site_occupancy
_atom_site_attached_hydrogens
Na1 Na1+ 4 a 0.63607(8) 0.50884(8) 0.99711(6) 0.01287(16) 1 0
Na2 Na1+ 4 a 0.80982(9) 0.69966(9) 0.75123(6) 0.01683(18) 1 0
B1 B0+ 4 a 0.6691(2) 0.8476(2) 1.01672(15) 0.0096(3) 1 0
B2 B0+ 4 a 0.7037(2) 0.9360(2) 0.91041(15) 0.0099(3) 1 0
B3 B0+ 4 a 0.5389(2) 0.9023(2) 0.94252(15) 0.0104(4) 1 0
B4 B0+ 4 a 0.5268(2) 0.9159(2) 1.06927(15) 0.0101(4) 1 0
B5 B0+ 4 a 0.6837(2) 0.9571(2) 1.11399(15) 0.0101(4) 1 0
B6 B0+ 4 a 0.7937(2) 0.9696(2) 1.01619(15) 0.0093(3) 1 0
B7 B0+ 4 a 0.5814(2) 1.0589(2) 0.89675(15) 0.0101(3) 1 0
B8 B0+ 4 a 0.4715(2) 1.0462(2) 0.99543(16) 0.0108(4) 1 0
B9 B0+ 4 a 0.5626(2) 1.0800(2) 1.10066(15) 0.0101(3) 1 0
B10 B0+ 4 a 0.7274(2) 1.1129(2) 1.06817(15) 0.0094(3) 1 0
B11 B0+ 4 a 0.7397(2) 1.1000(2) 0.94222(15) 0.0089(3) 1 0
B12 B0+ 4 a 0.5961(2) 1.16816(19) 0.99408(15) 0.0093(3) 1 0
F1 F1- 4 a 0.69777(12) 0.71740(11) 1.02632(9) 0.0141(2) 1 0
F2 F1- 4 a 0.76327(13) 0.87737(12) 0.83430(9) 0.0147(2) 1 0
F3 F1- 4 a 0.46459(13) 0.81738(12) 0.89040(9) 0.0160(2) 1 0
F4 F1- 4 a 0.44221(13) 0.84076(12) 1.12194(9) 0.0164(2) 1 0
F5 F1- 4 a 0.72208(13) 0.91699(12) 1.20253(9) 0.0169(2) 1 0
F6 F1- 4 a 0.92418(11) 0.93844(12) 1.02303(9) 0.0144(2) 1 0
F7 F1- 4 a 0.53940(13) 1.10046(13) 0.80953(9) 0.0160(2) 1 0
F8 F1- 4 a 0.34023(11) 1.07235(12) 0.98680(10) 0.0164(2) 1 0
F9 F1- 4 a 0.51469(13) 1.14171(12) 1.18091(8) 0.0153(2) 1 0
F10 F1- 4 a 0.79659(12) 1.19891(12) 1.12398(9) 0.0130(2) 1 0
F11 F1- 4 a 0.82694(12) 1.17232(12) 0.89005(8) 0.0130(2) 1 0
F12 F1- 4 a 0.56849(12) 1.29835(11) 0.98440(9) 0.0131(2) 1 0
O1 O2- 4 a 0.65443(17) 0.56487(18) 0.83285(12) 0.0195(3) 1 0
H1 H1+ 4 a 0.667(3) 0.500(3) 0.803(2) 0.020(7) 1 0
H2 H1+ 4 a 0.581(4) 0.576(4) 0.812(3) 0.040(10) 1 0
O2 O2- 4 a 0.5874(2) 0.46807(19) 1.16279(13) 0.0218(3) 1 0
H3 H1+ 4 a 0.612(3) 0.531(3) 1.196(2) 0.026(8) 1 0
H4 H1+ 4 a 0.519(4) 0.456(4) 1.174(3) 0.039(11) 1 0
O3 O2- 4 a 0.74363(19) 0.35088(17) 0.74337(13) 0.0221(3) 1 0
H5 H1+ 4 a 0.772(4) 0.288(4) 0.773(3) 0.050(12) 1 0
H6 H1+ 4 a 0.700(4) 0.323(4) 0.699(3) 0.037(10) 1 0
loop_
_atom_site_aniso_label
_atom_site_aniso_type_symbol
_atom_site_aniso_U_11
_atom_site_aniso_U_22
_atom_site_aniso_U_33
_atom_site_aniso_U_12
_atom_site_aniso_U_13
_atom_site_aniso_U_23
Na1 Na1+ 0.0101(3) 0.0102(3) 0.0183(4) 0.0004(3) -0.0004(3) -0.0002(3)
Na2 Na1+ 0.0239(4) 0.0135(4) 0.0131(4) 0.0045(3) -0.0019(3) -0.0009(3)
B1 B0+ 0.0102(8) 0.0076(8) 0.0111(8) 0.0000(7) -0.0005(7) -0.0003(7)
B2 B0+ 0.0108(8) 0.0086(8) 0.0103(8) 0.0003(7) 0.0012(7) -0.0010(7)
B3 B0+ 0.0096(8) 0.0082(8) 0.0135(9) -0.0019(7) -0.0024(7) -0.0001(7)
B4 B0+ 0.0089(8) 0.0088(8) 0.0125(9) -0.0019(7) 0.0021(7) 0.0014(7)
B5 B0+ 0.0122(9) 0.0088(8) 0.0093(8) -0.0001(7) -0.0002(7) 0.0007(7)
B6 B0+ 0.0083(8) 0.0080(8) 0.0118(9) 0.0004(6) -0.0003(7) -0.0003(7)
B7 B0+ 0.0100(8) 0.0095(8) 0.0108(9) -0.0003(7) -0.0009(7) 0.0005(7)
B8 B0+ 0.0079(8) 0.0097(8) 0.0148(9) -0.0005(6) 0.0005(7) 0.0011(7)
B9 B0+ 0.0098(8) 0.0091(8) 0.0114(9) -0.0004(7) 0.0012(7) -0.0005(7)
B10 B0+ 0.0098(8) 0.0081(8) 0.0104(8) -0.0003(7) -0.0002(7) -0.0006(6)
B11 B0+ 0.0095(8) 0.0078(8) 0.0092(8) -0.0007(7) 0.0007(7) 0.0001(6)
B12 B0+ 0.0083(8) 0.0077(8) 0.0119(9) 0.0009(6) 0.0006(7) 0.0007(7)
F1 F1- 0.0166(6) 0.0070(5) 0.0188(6) 0.0009(4) -0.0015(5) 0.0012(4)
F2 F1- 0.0207(6) 0.0119(5) 0.0114(5) 0.0031(5) 0.0053(4) -0.0014(4)
F3 F1- 0.0168(6) 0.0123(5) 0.0189(6) -0.0056(5) -0.0051(5) -0.0018(5)
F4 F1- 0.0152(6) 0.0153(6) 0.0186(6) -0.0058(5) 0.0056(5) 0.0036(5)
F5 F1- 0.0252(6) 0.0148(5) 0.0107(5) -0.0009(5) -0.0047(5) 0.0031(4)
F6 F1- 0.0076(5) 0.0128(5) 0.0227(6) 0.0015(4) -0.0009(4) 0.0016(5)
F7 F1- 0.0180(6) 0.0175(6) 0.0126(5) 0.0007(5) -0.0054(4) 0.0031(4)
F8 F1- 0.0072(5) 0.0155(5) 0.0265(7) 0.0004(4) -0.0003(5) 0.0031(5)
F9 F1- 0.0187(6) 0.0143(6) 0.0129(5) 0.0025(5) 0.0056(4) -0.0021(4)
F10 F1- 0.0145(5) 0.0112(5) 0.0133(5) -0.0034(4) -0.0023(4) -0.0024(4)
F11 F1- 0.0124(5) 0.0133(5) 0.0132(5) -0.0041(4) 0.0023(4) 0.0023(4)
F12 F1- 0.0135(5) 0.0063(5) 0.0196(6) 0.0016(4) -0.0004(4) 0.0003(4)
O1 O2- 0.0164(7) 0.0232(8) 0.0189(8) 0.0013(6) -0.0026(6) -0.0013(7)
O2 O2- 0.0243(9) 0.0234(9) 0.0178(8) 0.0060(7) -0.0012(7) -0.0007(6)
O3 O2- 0.0290(9) 0.0151(7) 0.0222(8) 0.0002(7) -0.0066(7) 0.0001(6)
#End of TTdata_265012-ICSD