
#(C) 2019 by FIZ Karlsruhe - Leibniz Institute for Information Infrastructure.  All rights reserved.
data_26536-ICSD
_database_code_ICSD 26536
_audit_creation_date 1981-12-31
_audit_update_record 2012-08-01
_chemical_name_systematic 'Sodium pentaoxoditellurate(IV) dihydrate'
_chemical_formula_structural 'Na2 Te2 O5 (H2 O)2'
_chemical_formula_sum 'H4 Na2 O7 Te2'
_exptl_crystal_density_diffrn 3.52
_publ_section_title

;
Etude Cristallographique du Tellurite de Sodium a Deux Molecules d'Eau, Na2
Te2 O5 (H2 O)2
;
loop_
_citation_id
_citation_journal_full
_citation_year
_citation_journal_volume
_citation_page_first
_citation_page_last
_citation_journal_id_ASTM
primary

;
Acta Crystallographica, Section B: Structural Crystallography and Crystal
Chemistry
; 1981 37 1278 1281 ACBCAR
loop_
_publ_author_name
'Daniel, F.'
'Moret, J.'
'Maurin, M.'
'Philippot, E.'
_cell_length_a 11.632(3)
_cell_length_b 5.613(2)
_cell_length_c 6.193(2)
_cell_angle_alpha 102.51(1)
_cell_angle_beta 93.14(1)
_cell_angle_gamma 92.23(1)
_cell_volume 393.62
_cell_formula_units_Z 2
_symmetry_space_group_name_H-M 'P -1'
_symmetry_Int_Tables_number 2
_refine_ls_R_factor_all 0.015
loop_
_symmetry_equiv_pos_site_id
_symmetry_equiv_pos_as_xyz
1 '-x, -y, -z'
2 'x, y, z'
loop_
_atom_type_symbol
_atom_type_oxidation_number
Te4+ 4
Na1+ 1
O2- -2
H1+ 1
loop_
_atom_site_label
_atom_site_type_symbol
_atom_site_symmetry_multiplicity
_atom_site_Wyckoff_symbol
_atom_site_fract_x
_atom_site_fract_y
_atom_site_fract_z
_atom_site_B_iso_or_equiv
_atom_site_occupancy
_atom_site_attached_hydrogens
Te1 Te4+ 2 i 0.86059(2) 0.04015(3) 0.06600(3) . 1. 0
Te2 Te4+ 2 i 0.36348(2) 0.45459(3) 0.00897(3) . 1. 0
Na1 Na1+ 2 i 0.0508(1) 0.6030(3) 0.2751(2) . 1. 0
Na2 Na1+ 2 i 0.5668(1) 0.1053(3) 0.2817(2) . 1. 0
O1 O2- 2 i 0.0542(2) 0.2355(4) 0.0038(4) . 1. 0
O2 O2- 2 i 0.5031(2) 0.7277(4) 0.0545(4) . 1. 0
O3 O2- 2 i 0.7178(2) 0.8782(4) 0.1068(4) . 1. 0
O4 O2- 2 i 0.1791(2) 0.9144(5) 0.2139(4) . 1. 0
O5 O2- 2 i 0.6768(2) 0.4623(5) 0.2551(4) . 1. 0
O6 O2- 2 i 0.3856(2) 0.1325(5) 0.4221(4) . 1. 0
O7 O2- 2 i 0.8828(2) 0.6475(5) 0.4840(4) . 1. 0
H1 H1+ 2 i 0.828 0.6 0.44 3. 1. 0
H2 H1+ 2 i 0.129 0.23 0.42 3. 1. 0
H3 H1+ 2 i 0.322 0.07 0.36 3. 1. 0
H4 H1+ 2 i 0.63 0.77 0.49 3. 1. 0
loop_
_atom_site_aniso_label
_atom_site_aniso_type_symbol
_atom_site_aniso_U_11
_atom_site_aniso_U_22
_atom_site_aniso_U_33
_atom_site_aniso_U_12
_atom_site_aniso_U_13
_atom_site_aniso_U_23
Te1 Te4+ 0.0107(1) 0.0120(1) 0.0169(1) 0.0000(1) 0.0008(1) 0.0027(1)
Te2 Te4+ 0.0117(1) 0.0126(1) 0.0167(1) 0.0015(1) 0.0011(1) 0.0033(1)
Na1 Na1+ 0.0199(6) 0.0175(6) 0.0206(3) 0.0010(5) 0.0035(5) 0.007(1)
Na2 Na1+ 0.0151(7) 0.0136(7) 0.0247(7) 0.0010(5) 0.0040(5) 0.004(1)
O1 O2- 0.015(1) 0.015(1) 0.020(1) 0.008(1) 0.004(1) 0.004(1)
O2 O2- 0.010(1) 0.009(1) 0.023(1) 0.000(1) 0.000(1) 0.002(1)
O3 O2- 0.012(1) 0.015(1) 0.028(1) -.004(1) 0.005(1) 0.004(1)
O4 O2- 0.018(1) 0.022(1) 0.023(1) -.004(1) -.005(1) 0.013(1)
O5 O2- 0.018(1) 0.018(1) 0.021(1) -.003(1) -.010(1) 0.010(1)
O6 O2- 0.015(1) 0.034(2) 0.022(1) 0.004(1) 0.002(1) -.001(1)
O7 O2- 0.017(1) 0.033(2) 0.019(1) 0.007(1) 0.001(1) 0.002(1)
#End of TTdata_26536-ICSD