
#(C) 2019 by FIZ Karlsruhe - Leibniz Institute for Information Infrastructure.  All rights reserved.
data_266650-ICSD
_database_code_ICSD 266650
_audit_creation_date 2019-08-01
_chemical_name_systematic 'Sodium copper magnesium arsenate(V)'
_chemical_formula_structural 'Na0.91 Cu0.98 Mg4.26 (As O4)3'
_chemical_formula_sum 'As3 Cu0.98 Mg4.26 Na0.91 O12'
_exptl_crystal_density_diffrn 4.28
_cell_measurement_temperature 293.
_publ_section_title 'Crystal chemistry of johillerite'
loop_
_citation_id
_citation_journal_full
_citation_year
_citation_journal_volume
_citation_page_first
_citation_page_last
_citation_journal_id_ASTM
primary 'Canadian Mineralogist' 2018 56 189 201 CAMIA6
loop_
_publ_author_name
'Koshlyakova, Natalia N.'
'Zubkova, Natalia V.'
'Pekov, Igor V.'
'Giester, Gerald'
'Sidorov, Evgeny G.'
_cell_length_a 11.8589(3)
_cell_length_b 12.7283(3)
_cell_length_c 6.7702(2)
_cell_angle_alpha 90
_cell_angle_beta 113.6283(16)
_cell_angle_gamma 90
_cell_volume 936.24
_cell_formula_units_Z 4
_symmetry_space_group_name_H-M 'C 1 2/c 1'
_symmetry_Int_Tables_number 15
_refine_ls_R_factor_all 0.0215
loop_
_symmetry_equiv_pos_site_id
_symmetry_equiv_pos_as_xyz
1 'x, -y, z+1/2'
2 '-x, -y, -z'
3 '-x, y, -z+1/2'
4 'x, y, z'
5 'x+1/2, -y+1/2, z+1/2'
6 '-x+1/2, -y+1/2, -z'
7 '-x+1/2, y+1/2, -z+1/2'
8 'x+1/2, y+1/2, z'
loop_
_atom_type_symbol
_atom_type_oxidation_number
Cu1+ 1
Na1+ 1
Mg2+ 2
As5+ 5
O2- -2
loop_
_atom_site_label
_atom_site_type_symbol
_atom_site_symmetry_multiplicity
_atom_site_Wyckoff_symbol
_atom_site_fract_x
_atom_site_fract_y
_atom_site_fract_z
_atom_site_B_iso_or_equiv
_atom_site_occupancy
_atom_site_attached_hydrogens
Cu1 Cu1+ 4 e 0. 0.50287(2) 0.25 0.00732(8) 0.9844(16) 0
Na1 Na1+ 4 e 0. -0.00743(13) 0.25 0.0267(5) 0.914(6) 0
Mg1 Mg2+ 4 e 0. 0.26105(5) 0.25 0.00814(16) 1.366(4) 0
Mg2 Mg2+ 8 f 0.28532(3) 0.65609(3) 0.37366(6) 0.00609(10) 1.448(3) 0
As1 As5+ 4 e 0. 0.71440(2) 0.25 0.00622(5) 1 0
As2 As5+ 8 f 0.22988(2) 0.88564(2) 0.12452(2) 0.00588(4) 1 0
O1 O2- 8 f 0.46298(10) 0.71430(9) 0.52486(18) 0.00897(19) 1 0
O2 O2- 8 f 0.10615(11) 0.62015(9) 0.2621(2) 0.00972(19) 1 0
O3 O2- 8 f 0.34177(11) 0.67014(9) 0.11957(18) 0.0096(2) 1 0
O4 O2- 8 f 0.11646(11) 0.39161(9) 0.3144(2) 0.0109(2) 1 0
O5 O2- 8 f 0.21564(11) 0.81173(9) 0.31895(19) 0.0097(2) 1 0
O6 O2- 8 f 0.33493(12) 0.50307(9) 0.3888(2) 0.0123(2) 1 0
loop_
_atom_site_aniso_label
_atom_site_aniso_type_symbol
_atom_site_aniso_U_11
_atom_site_aniso_U_22
_atom_site_aniso_U_33
_atom_site_aniso_U_12
_atom_site_aniso_U_13
_atom_site_aniso_U_23
Cu1 Cu1+ 0.00561(12) 0.00408(12) 0.01219(14) 0. 0.00347(10) 0.
Na1 Na1+ 0.0148(7) 0.0429(10) 0.0193(7) 0. 0.0037(5) 0.
Mg1 Mg2+ 0.0058(3) 0.0079(3) 0.0119(3) 0. 0.0048(2) 0.
Mg2 Mg2+ 0.00499(17) 0.00502(17) 0.00915(18) -0.00056(12) 0.00376(13)
0.00005(12)
As1 As5+ 0.00675(9) 0.00519(9) 0.00581(9) 0. 0.00156(7) 0.
As2 As5+ 0.00561(6) 0.00564(7) 0.00607(6) -0.00032(5) 0.00202(5) 0.00019(5)
O1 O2- 0.0071(5) 0.0111(5) 0.0077(5) -0.0006(4) 0.0019(4) -0.0032(4)
O2 O2- 0.0076(4) 0.0066(5) 0.0152(5) 0.0002(4) 0.0048(4) -0.0010(4)
O3 O2- 0.0109(5) 0.0103(5) 0.0061(5) -0.0028(4) 0.0017(4) -0.0016(4)
O4 O2- 0.0063(5) 0.0074(5) 0.0188(6) 0.0013(4) 0.0048(4) 0.0008(4)
O5 O2- 0.0097(5) 0.0115(5) 0.0079(5) -0.0012(4) 0.0034(4) 0.0021(4)
O6 O2- 0.0129(5) 0.0077(5) 0.0166(6) -0.0019(4) 0.0064(5) 0.0008(4)
#End of TTdata_266650-ICSD