
#(C) 2019 by FIZ Karlsruhe - Leibniz Institute for Information Infrastructure.  All rights reserved.
data_267172-ICSD
_database_code_ICSD 267172
_audit_creation_date 2019-08-01
_chemical_name_systematic 'Sodium vanadium oxide (0.97/2/5) - gamma phase'
_chemical_formula_structural 'Na0.97 V2 O5'
_chemical_formula_sum 'Na0.97 O5 V2'
_exptl_crystal_density_diffrn 3.22
_publ_section_title

;
gamma-Na0.96V2O5. A new competitive cathode material for sodium-ion batteries
synthesized by a soft chemistry route
;
loop_
_citation_id
_citation_journal_full
_citation_year
_citation_journal_volume
_citation_page_first
_citation_page_last
_citation_journal_id_ASTM
primary 'Chemistry of Materials' 2018 30 5305 5314 CMATEX
loop_
_publ_author_name
'Emery, Nicolas'
'Baddour-Hadjean, Rita'
'Batyrbekuly, Dauren'
'Laik, Barbara'
'Bakenov, Zhumabay'
'Pereira-Ramos, Jean-Pierre'
_cell_length_a 9.7767(6)
_cell_length_b 3.62854(19)
_cell_length_c 11.8846(6)
_cell_angle_alpha 90.
_cell_angle_beta 90.
_cell_angle_gamma 90.
_cell_volume 421.6
_cell_formula_units_Z 4
_symmetry_space_group_name_H-M 'P n m a'
_symmetry_Int_Tables_number 62
_refine_ls_R_factor_all 0.0129
loop_
_symmetry_equiv_pos_site_id
_symmetry_equiv_pos_as_xyz
1 'x+1/2, y, -z+1/2'
2 'x, -y+1/2, z'
3 '-x+1/2, y+1/2, z+1/2'
4 '-x, -y, -z'
5 '-x+1/2, -y, z+1/2'
6 '-x, y+1/2, -z'
7 'x+1/2, -y+1/2, -z+1/2'
8 'x, y, z'
loop_
_atom_type_symbol
_atom_type_oxidation_number
Na1+ 1
V4+ 4.515
O2- -2
loop_
_atom_site_label
_atom_site_type_symbol
_atom_site_symmetry_multiplicity
_atom_site_Wyckoff_symbol
_atom_site_fract_x
_atom_site_fract_y
_atom_site_fract_z
_atom_site_B_iso_or_equiv
_atom_site_occupancy
_atom_site_attached_hydrogens
Na1 Na1+ 4 c 0.1573(5) 0.25 0.2306(4) 0.0347(27) 0.970(10) 0
V1 V4+ 4 c 0.37584(20) 0.25 0.50109(23) 0.0140(7) 1. 0
V2 V4+ 4 c 0.06818(26) 0.25 0.58789(21) 0.0140(7) 1. 0
O1 O2- 4 c 0.2467(9) 0.25 0.6179(6) 0.0307(12) 1. 0
O2 O2- 4 c 0.4904(7) 0.25 0.7980(7) 0.0307(12) 1. 0
O3 O2- 4 c 0.2883(8) 0.25 0.3883(7) 0.0307(12) 1. 0
O4 O2- 4 c 0.5692(7) 0.25 0.4589(5) 0.0307(12) 1. 0
O5 O2- 4 c 0.4392(6) 0.25 0.0387(5) 0.0307(12) 1. 0
#End of TTdata_267172-ICSD