
#(C) 2019 by FIZ Karlsruhe - Leibniz Institute for Information Infrastructure.  All rights reserved.
data_267272-ICSD
_database_code_ICSD 267272
_audit_creation_date 2019-08-01
_chemical_name_systematic
'Sodium rubidium octacopper trigermanium dodecasulfide'
_chemical_formula_structural '(Na0.32 Rb3.68) (Cu8 Ge3 S12)'
_chemical_formula_sum 'Cu8 Ge3 Na0.32 Rb3.68 S12'
_chemical_name_structure_type K4Cu8(GeS4)3
_exptl_crystal_density_diffrn 3.41
_cell_measurement_temperature 296.
_publ_section_title
'Unusual flexibility of microporous sulfides during ion exchange'
loop_
_citation_id
_citation_journal_full
_citation_year
_citation_journal_volume
_citation_page_first
_citation_page_last
_citation_journal_id_ASTM
primary 'Inorganic Chemistry' 2018 57 13128 13136 INOCAJ
loop_
_publ_author_name
'Zhang, Ren-Chun'
'Zhang, Jing-Chao'
'Cao, Zhi'
'Wang, Jun-Jie'
'Liang, Shuang-Shuang'
'Cong, Hong-Jing'
'Wang, He-Jie'
'Zhang, Dao-Jun'
'An, Yong-Lin'
_cell_length_a 17.7351(4)
_cell_length_b 17.7351(4)
_cell_length_c 17.7351(4)
_cell_angle_alpha 90
_cell_angle_beta 90
_cell_angle_gamma 90
_cell_volume 5578.28
_cell_formula_units_Z 8
_symmetry_space_group_name_H-M 'F m -3 c'
_symmetry_Int_Tables_number 226
_refine_ls_R_factor_all 0.0675
loop_
_symmetry_equiv_pos_site_id
_symmetry_equiv_pos_as_xyz
1 '-y+1/2, x, z'
2 'y+1/2, x, -z'
3 'y+1/2, -x, z'
4 '-y+1/2, -x, -z'
5 '-z, x, y'
6 'z, x, -y'
7 'z, -x, y'
8 '-z, -x, -y'
9 'z, -y+1/2, x'
10 '-z, y+1/2, x'
11 'z, y+1/2, -x'
12 '-z, -y+1/2, -x'
13 'y, -z, x'
14 '-y, z, x'
15 'y, z, -x'
16 '-y, -z, -x'
17 'x, z, -y+1/2'
18 'x, -z, y+1/2'
19 '-x, z, y+1/2'
20 '-x, -z, -y+1/2'
21 'x, y, -z'
22 'x, -y, z'
23 '-x, y, z'
24 '-x, -y, -z'
25 'y+1/2, -x, -z'
26 '-y+1/2, -x, z'
27 '-y+1/2, x, -z'
28 'y+1/2, x, z'
29 'z, -x, -y'
30 '-z, -x, y'
31 '-z, x, -y'
32 'z, x, y'
33 '-z, y+1/2, -x'
34 'z, -y+1/2, -x'
35 '-z, -y+1/2, x'
36 'z, y+1/2, x'
37 '-y, z, -x'
38 'y, -z, -x'
39 '-y, -z, x'
40 'y, z, x'
41 '-x, -z, y+1/2'
42 '-x, z, -y+1/2'
43 'x, -z, -y+1/2'
44 'x, z, y+1/2'
45 '-x, -y, z'
46 '-x, y, -z'
47 'x, -y, -z'
48 'x, y, z'
49 '-y+1/2, x+1/2, z+1/2'
50 'y+1/2, x+1/2, -z+1/2'
51 'y+1/2, -x+1/2, z+1/2'
52 '-y+1/2, -x+1/2, -z+1/2'
53 '-z, x+1/2, y+1/2'
54 'z, x+1/2, -y+1/2'
55 'z, -x+1/2, y+1/2'
56 '-z, -x+1/2, -y+1/2'
57 'z, -y, x+1/2'
58 '-z, y, x+1/2'
59 'z, y, -x+1/2'
60 '-z, -y, -x+1/2'
61 'y, -z+1/2, x+1/2'
62 '-y, z+1/2, x+1/2'
63 'y, z+1/2, -x+1/2'
64 '-y, -z+1/2, -x+1/2'
65 'x, z+1/2, -y'
66 'x, -z+1/2, y'
67 '-x, z+1/2, y'
68 '-x, -z+1/2, -y'
69 'x, y+1/2, -z+1/2'
70 'x, -y+1/2, z+1/2'
71 '-x, y+1/2, z+1/2'
72 '-x, -y+1/2, -z+1/2'
73 'y+1/2, -x+1/2, -z+1/2'
74 '-y+1/2, -x+1/2, z+1/2'
75 '-y+1/2, x+1/2, -z+1/2'
76 'y+1/2, x+1/2, z+1/2'
77 'z, -x+1/2, -y+1/2'
78 '-z, -x+1/2, y+1/2'
79 '-z, x+1/2, -y+1/2'
80 'z, x+1/2, y+1/2'
81 '-z, y, -x+1/2'
82 'z, -y, -x+1/2'
83 '-z, -y, x+1/2'
84 'z, y, x+1/2'
85 '-y, z+1/2, -x+1/2'
86 'y, -z+1/2, -x+1/2'
87 '-y, -z+1/2, x+1/2'
88 'y, z+1/2, x+1/2'
89 '-x, -z+1/2, y'
90 '-x, z+1/2, -y'
91 'x, -z+1/2, -y'
92 'x, z+1/2, y'
93 '-x, -y+1/2, z+1/2'
94 '-x, y+1/2, -z+1/2'
95 'x, -y+1/2, -z+1/2'
96 'x, y+1/2, z+1/2'
97 '-y, x, z+1/2'
98 'y, x, -z+1/2'
99 'y, -x, z+1/2'
100 '-y, -x, -z+1/2'
101 '-z+1/2, x, y+1/2'
102 'z+1/2, x, -y+1/2'
103 'z+1/2, -x, y+1/2'
104 '-z+1/2, -x, -y+1/2'
105 'z+1/2, -y+1/2, x+1/2'
106 '-z+1/2, y+1/2, x+1/2'
107 'z+1/2, y+1/2, -x+1/2'
108 '-z+1/2, -y+1/2, -x+1/2'
109 'y+1/2, -z, x+1/2'
110 '-y+1/2, z, x+1/2'
111 'y+1/2, z, -x+1/2'
112 '-y+1/2, -z, -x+1/2'
113 'x+1/2, z, -y'
114 'x+1/2, -z, y'
115 '-x+1/2, z, y'
116 '-x+1/2, -z, -y'
117 'x+1/2, y, -z+1/2'
118 'x+1/2, -y, z+1/2'
119 '-x+1/2, y, z+1/2'
120 '-x+1/2, -y, -z+1/2'
121 'y, -x, -z+1/2'
122 '-y, -x, z+1/2'
123 '-y, x, -z+1/2'
124 'y, x, z+1/2'
125 'z+1/2, -x, -y+1/2'
126 '-z+1/2, -x, y+1/2'
127 '-z+1/2, x, -y+1/2'
128 'z+1/2, x, y+1/2'
129 '-z+1/2, y+1/2, -x+1/2'
130 'z+1/2, -y+1/2, -x+1/2'
131 '-z+1/2, -y+1/2, x+1/2'
132 'z+1/2, y+1/2, x+1/2'
133 '-y+1/2, z, -x+1/2'
134 'y+1/2, -z, -x+1/2'
135 '-y+1/2, -z, x+1/2'
136 'y+1/2, z, x+1/2'
137 '-x+1/2, -z, y'
138 '-x+1/2, z, -y'
139 'x+1/2, -z, -y'
140 'x+1/2, z, y'
141 '-x+1/2, -y, z+1/2'
142 '-x+1/2, y, -z+1/2'
143 'x+1/2, -y, -z+1/2'
144 'x+1/2, y, z+1/2'
145 '-y, x+1/2, z'
146 'y, x+1/2, -z'
147 'y, -x+1/2, z'
148 '-y, -x+1/2, -z'
149 '-z+1/2, x+1/2, y'
150 'z+1/2, x+1/2, -y'
151 'z+1/2, -x+1/2, y'
152 '-z+1/2, -x+1/2, -y'
153 'z+1/2, -y, x'
154 '-z+1/2, y, x'
155 'z+1/2, y, -x'
156 '-z+1/2, -y, -x'
157 'y+1/2, -z+1/2, x'
158 '-y+1/2, z+1/2, x'
159 'y+1/2, z+1/2, -x'
160 '-y+1/2, -z+1/2, -x'
161 'x+1/2, z+1/2, -y+1/2'
162 'x+1/2, -z+1/2, y+1/2'
163 '-x+1/2, z+1/2, y+1/2'
164 '-x+1/2, -z+1/2, -y+1/2'
165 'x+1/2, y+1/2, -z'
166 'x+1/2, -y+1/2, z'
167 '-x+1/2, y+1/2, z'
168 '-x+1/2, -y+1/2, -z'
169 'y, -x+1/2, -z'
170 '-y, -x+1/2, z'
171 '-y, x+1/2, -z'
172 'y, x+1/2, z'
173 'z+1/2, -x+1/2, -y'
174 '-z+1/2, -x+1/2, y'
175 '-z+1/2, x+1/2, -y'
176 'z+1/2, x+1/2, y'
177 '-z+1/2, y, -x'
178 'z+1/2, -y, -x'
179 '-z+1/2, -y, x'
180 'z+1/2, y, x'
181 '-y+1/2, z+1/2, -x'
182 'y+1/2, -z+1/2, -x'
183 '-y+1/2, -z+1/2, x'
184 'y+1/2, z+1/2, x'
185 '-x+1/2, -z+1/2, y+1/2'
186 '-x+1/2, z+1/2, -y+1/2'
187 'x+1/2, -z+1/2, -y+1/2'
188 'x+1/2, z+1/2, y+1/2'
189 '-x+1/2, -y+1/2, z'
190 '-x+1/2, y+1/2, -z'
191 'x+1/2, -y+1/2, -z'
192 'x+1/2, y+1/2, z'
loop_
_atom_type_symbol
_atom_type_oxidation_number
Ge4+ 4
S2- -2
Cu1+ 1
Rb1+ 1
Na1+ 1
loop_
_atom_site_label
_atom_site_type_symbol
_atom_site_symmetry_multiplicity
_atom_site_Wyckoff_symbol
_atom_site_fract_x
_atom_site_fract_y
_atom_site_fract_z
_atom_site_B_iso_or_equiv
_atom_site_occupancy
_atom_site_attached_hydrogens
Ge1 Ge4+ 24 c 0. 0.25 0.5 0.0194(10) 1 0
S1 S2- 96 i 0.10258(18) 0.17821(18) 0.5 0.0253(11) 1 0
Cu1 Cu1+ 64 g 0.08682(8) 0.08682(8) 0.41318(8) 0.0322(10) 1 0
Rb1 Rb1+ 48 f 0.25 0.25 0.4162(6) 0.105(3) 0.6133 0
Na1 Na1+ 48 f 0.25 0.25 0.4162(6) 0.105(3) 0.0533 0
loop_
_atom_site_aniso_label
_atom_site_aniso_type_symbol
_atom_site_aniso_U_11
_atom_site_aniso_U_22
_atom_site_aniso_U_33
_atom_site_aniso_U_12
_atom_site_aniso_U_13
_atom_site_aniso_U_23
Ge1 Ge4+ 0.0208(12) 0.0165(14) 0.0208(12) 0. 0. 0.
S1 S2- 0.0231(17) 0.0236(17) 0.0292(17) 0.0029(12) 0. 0.
Cu1 Cu1+ 0.0322(10) 0.0322(10) 0.0322(10) 0.0038(5) -0.0038(5) -0.0038(5)
Rb1 Rb1+ 0.085(3) 0.085(3) 0.146(7) 0. 0. 0.
Na1 Na1+ 0.085(3) 0.085(3) 0.146(7) 0. 0. 0.
#End of TTdata_267272-ICSD