
#(C) 2019 by FIZ Karlsruhe - Leibniz Institute for Information Infrastructure.  All rights reserved.
data_267442-ICSD
_database_code_ICSD 267442
_audit_creation_date 2019-08-01
_chemical_name_systematic 'Disodium cobalt(II) bis(sulfate(VI)) tetrahydrate'
_chemical_formula_structural 'Na2 Co (S O4)2 (H2 O)4'
_chemical_formula_sum 'H8 Co1 Na2 O12 S2'
_chemical_name_structure_type Na2Ni(SO4)2(H2O)4
_exptl_crystal_density_diffrn 2.46
_cell_measurement_temperature 298.
_publ_section_title

;
Design of new electrode materials for Li-ion and Na-ion batteries from the
bloedite mineral Na2Mg(SO4)2.4H2O
;
loop_
_citation_id
_citation_journal_full
_citation_year
_citation_journal_volume
_citation_page_first
_citation_page_last
_citation_journal_id_ASTM
primary
'Journal of Materials Chemistry A: Materials for Energy and Sustainability' 2014 2 2671 2680 JMCAET
loop_
_publ_author_name
'Reynaud, Marine'
'Rousse, Gwenaelle'
'Abakumov, Artem M.'
'Sougrati, Moulay T.'
'Van Tendeloo, Gustaaf'
'Chotard, Jean-Noel'
'Tarascon, Jean-Marie'
_cell_length_a 5.53557(11)
_cell_length_b 8.24356(15)
_cell_length_c 11.09782(20)
_cell_angle_alpha 90.
_cell_angle_beta 100.3557(15)
_cell_angle_gamma 90.
_cell_volume 498.17
_cell_formula_units_Z 2
_symmetry_space_group_name_H-M 'P 1 21/c 1'
_symmetry_Int_Tables_number 14
_refine_ls_R_factor_all 0.0117
loop_
_symmetry_equiv_pos_site_id
_symmetry_equiv_pos_as_xyz
1 'x, -y+1/2, z+1/2'
2 '-x, -y, -z'
3 '-x, y+1/2, -z+1/2'
4 'x, y, z'
loop_
_atom_type_symbol
_atom_type_oxidation_number
S6+ 6
Co2+ 2
Na1+ 1
O2- -2
H1+ 1
loop_
_atom_site_label
_atom_site_type_symbol
_atom_site_symmetry_multiplicity
_atom_site_Wyckoff_symbol
_atom_site_fract_x
_atom_site_fract_y
_atom_site_fract_z
_atom_site_B_iso_or_equiv
_atom_site_occupancy
_atom_site_attached_hydrogens
S1 S6+ 4 e 0.3701(3) 0.28793(17) 0.13613(13) 0.0059(4) 1. 0
Co1 Co2+ 2 a 0.00001 0.00001 0.00001 0.0039(3) 1. 0
Na1 Na1+ 4 e 0.1290(3) 0.0700(2) 0.36168(17) 0.0126(6) 1. 0
O1 O2- 4 e 0.3462(5) 0.2704(3) 0.2676(3) 0.0141(9) 1. 0
O2 O2- 4 e 0.2026(5) 0.4151(3) 0.0789(2) 0.0126(8) 1. 0
O3 O2- 4 e 0.3148(5) 0.1319(3) 0.0725(2) 0.0113(8) 1. 0
O4 O2- 4 e 0.6280(5) 0.3299(3) 0.1320(3) 0.0123(8) 1. 0
O5 O2- 4 e 0.1277(5) 0.5392(3) 0.3379(2) 0.0097(8) 1. 0
O6 O2- 4 e 0.1760(5) 0.7861(3) 0.0815(3) 0.0118(8) 1. 0
H1 H1+ 4 e 0.230(2) 0.4452(14) 0.3208(11) 0.028(3) 1. 0
H2 H1+ 4 e 0.227(3) 0.6359(16) 0.3438(13) 0.040(3) 1. 0
H3 H1+ 4 e 0.683(2) 0.3027(18) 0.3587(13) 0.040(4) 1. 0
H4 H1+ 4 e 0.237(2) 0.7186(17) 0.0206(13) 0.041(3) 1. 0
#End of TTdata_267442-ICSD