
#(C) 2019 by FIZ Karlsruhe - Leibniz Institute for Information Infrastructure.  All rights reserved.
data_27207-ICSD
_database_code_ICSD 27207
_audit_creation_date 1982-12-31
_chemical_name_systematic 'Sodium hydrogen phosphate(III) *'
_chemical_formula_structural 'Na.5 H2.5 P O3'
_chemical_formula_sum 'H2.5 Na0.5 O3 P1'
_exptl_crystal_density_diffrn 2.14
_publ_section_title 'Structure of Sodium Hydrogenphosphite'
loop_
_citation_id
_citation_journal_full
_citation_year
_citation_journal_volume
_citation_page_first
_citation_page_last
_citation_journal_id_ASTM
primary

;
Acta Crystallographica, Section B: Structural Crystallography and Crystal
Chemistry
; 1982 38 1267 1269 ACBCAR
loop_
_publ_author_name
'Hazell, R.G.'
'Hazell, A.C.'
'Kratochvil, B.'
_cell_length_a 5.908(2)
_cell_length_b 5.908(2)
_cell_length_c 9.554(4)
_cell_angle_alpha 90.
_cell_angle_beta 90.
_cell_angle_gamma 120.
_cell_volume 288.8
_cell_formula_units_Z 4
_symmetry_space_group_name_H-M 'P -3 c 1'
_symmetry_Int_Tables_number 165
_refine_ls_R_factor_all 0.022
loop_
_symmetry_equiv_pos_site_id
_symmetry_equiv_pos_as_xyz
1 'x-y, -y, -z+1/2'
2 '-x, -x+y, -z+1/2'
3 'y, x, -z+1/2'
4 'x-y, x, -z'
5 'y, -x+y, -z'
6 '-x, -y, -z'
7 '-x+y, y, z+1/2'
8 'x, x-y, z+1/2'
9 '-y, -x, z+1/2'
10 '-x+y, -x, z'
11 '-y, x-y, z'
12 'x, y, z'
loop_
_atom_type_symbol
_atom_type_oxidation_number
P3+ 3
Na1+ 1
O2- -2
H1+ 1
loop_
_atom_site_label
_atom_site_type_symbol
_atom_site_symmetry_multiplicity
_atom_site_Wyckoff_symbol
_atom_site_fract_x
_atom_site_fract_y
_atom_site_fract_z
_atom_site_B_iso_or_equiv
_atom_site_occupancy
_atom_site_attached_hydrogens
P1 P3+ 4 d 0.6667 0.3333 0.59647(2) . 1. 0
Na1 Na1+ 2 b 0 0 0 . 1. 0
O1 O2- 12 g 0.38808(8) 0.25506(11) 0.64044(5) . 1. 0
H1 H1+ 4 d 0.6667 0.3333 0.465(1) 0.0075(32) 1. 0
H2 H1+ 12 g 0.389(4) 0.341(4) 0.710(2) 0.0329(64) 0.5 0
loop_
_atom_site_aniso_label
_atom_site_aniso_type_symbol
_atom_site_aniso_U_11
_atom_site_aniso_U_22
_atom_site_aniso_U_33
_atom_site_aniso_U_12
_atom_site_aniso_U_13
_atom_site_aniso_U_23
P1 P3+ 0.0154(1) 0.0154 0.0148(1) 0.0077 0 0
Na1 Na1+ 0.0187(2) 0.0187 0.0379(4) 0.0093 0 0
O1 O2- 0.0164(1) 0.0266(2) 0.0266(2) 0.0103(2) 0.0012(1) -.0046(2)
#End of TTdata_27207-ICSD