
#(C) 2019 by FIZ Karlsruhe - Leibniz Institute for Information Infrastructure.  All rights reserved.
data_27220-ICSD
_database_code_ICSD 27220
_audit_creation_date 1982-12-31
_chemical_name_systematic 'Gadolinium sodium rhenate tetrahydrate'
_chemical_formula_structural 'Gd Na (Re O4)4 (H2 O)4'
_chemical_formula_sum 'H8 Gd1 Na1 O20 Re4'
_exptl_crystal_density_diffrn 4.66
_publ_section_title

;
Structure du Perrhenate de Gadolinium-Sodium Tetrahydrate Gd Na (Re O4)4 (H2
O)4
;
loop_
_citation_id
_citation_journal_full
_citation_year
_citation_journal_volume
_citation_page_first
_citation_page_last
_citation_journal_id_ASTM
primary

;
Acta Crystallographica, Section B: Structural Crystallography and Crystal
Chemistry
; 1982 38 1070 1074 ACBCAR
loop_
_publ_author_name
'Slimane, A.A.'
'Sivestre, J.P.F.'
'Freundlich, W.'
'Rimsky, A.'
_cell_length_a 12.483(5)
_cell_length_b 12.483(5)
_cell_length_c 5.728(4)
_cell_angle_alpha 90.
_cell_angle_beta 90.
_cell_angle_gamma 90.
_cell_volume 892.57
_cell_formula_units_Z 2
_symmetry_space_group_name_H-M 'P -4 n 2'
_symmetry_Int_Tables_number 118
_refine_ls_R_factor_all 0.0402
loop_
_symmetry_equiv_pos_site_id
_symmetry_equiv_pos_as_xyz
1 '-y+1/2, -x+1/2, -z+1/2'
2 'y, -x, -z'
3 'x+1/2, -y+1/2, z+1/2'
4 '-x, -y, z'
5 'y+1/2, x+1/2, -z+1/2'
6 '-y, x, -z'
7 '-x+1/2, y+1/2, z+1/2'
8 'x, y, z'
loop_
_atom_type_symbol
_atom_type_oxidation_number
Gd3+ 3
Na1+ 1
Re7+ 7
O2- -2
H1+ 1
loop_
_atom_site_label
_atom_site_type_symbol
_atom_site_symmetry_multiplicity
_atom_site_Wyckoff_symbol
_atom_site_fract_x
_atom_site_fract_y
_atom_site_fract_z
_atom_site_B_iso_or_equiv
_atom_site_occupancy
_atom_site_attached_hydrogens
Gd1 Gd3+ 2 c 0 0.5 0.25 . 1. 0
Na1 Na1+ 2 b 0 0 0.5 . 1. 0
Re1 Re7+ 8 i 0.09212(3) 0.78585(4) 0.02042(9) . 1. 0
O1 O2- 8 i 0.0680(8) 0.6513(8) 0.9610(24) . 1. 0
O2 O2- 8 i 0.2263(9) 0.8101(8) 0.9965(36) . 1. 0
O3 O2- 8 i 0.0247(9) 0.8635(10) 0.8174(22) . 1. 0
O4 O2- 8 i 0.0477(9) 0.8149(9) 0.3021(21) . 1. 0
O5 O2- 8 i 0.1476(7) 0.4388(8) 0.9697(25) . 1. 0
H1 H1+ 8 i 0.164(9) 0.364(9) 0.021(35) 3. 1. 0
H2 H1+ 8 i 0.208(9) 0.480(9) 0.045(35) 3. 1. 0
loop_
_atom_site_aniso_label
_atom_site_aniso_type_symbol
_atom_site_aniso_beta_11
_atom_site_aniso_beta_22
_atom_site_aniso_beta_33
_atom_site_aniso_beta_12
_atom_site_aniso_beta_13
_atom_site_aniso_beta_23
Gd1 Gd3+ 0.00156(3) 0.00156(3) 0.01372(33) -.00018(4) 0 0
Na1 Na1+ 0.00472(46) 0.00472(46) 0.01724(88) 0 0 0
Re1 Re7+ 0.00181(2) 0.00205(2) 0.01365(10) 0.00021(2) 0.00042(5) 0.00048(5)
O1 O2- 0.00252(47) 0.00364(57) 0.0280(44) 0.00007(43) 0.0031(14) 0.0054(14)
O2 O2- 0.00534(73) 0.00234(51) 0.0442(61) 0.00074(49) -0.0024(25) -0.0009(21)
O3 O2- 0.00364(66) 0.00493(76) 0.0177(31) -.00021(53) 0.0019(13) -0.0005(13)
O4 O2- 0.00382(65) 0.00465(73) 0.0162(31) -.00005(55) 0.0018(12) -0.0019(13)
O5 O2- 0.00139(39) 0.00369(54) 0.0321(42) -.00019(37) 0.0013(13) 0.0060(15)
#End of TTdata_27220-ICSD