
#(C) 2019 by FIZ Karlsruhe - Leibniz Institute for Information Infrastructure.  All rights reserved.
data_2771-ICSD
_database_code_ICSD 2771
_audit_creation_date 1980-01-01
_audit_update_record 2006-04-01
_chemical_name_systematic 'Disodium dichromate - beta'
_chemical_formula_structural 'Na2 (Cr2 O7)'
_chemical_formula_sum 'Cr2 Na2 O7'
_chemical_name_structure_type K2Cr2O7(H-type)
_exptl_crystal_density_diffrn 2.72
_publ_section_title 'The crystal structure of beta-Na2 Cr2 O7'
loop_
_citation_id
_citation_journal_full
_citation_year
_citation_journal_volume
_citation_page_first
_citation_page_last
_citation_journal_id_ASTM
primary

;
Acta Crystallographica, Section B: Structural Crystallography and Crystal
Chemistry
; 1972 28 1352 1357 ACBCAR
loop_
_publ_author_name
'Panagiotopoulos, N.C.'
'Brown, I.D.'
_cell_length_a 7.702(10)
_cell_length_b 10.38(1)
_cell_length_c 9.402(10)
_cell_angle_alpha 89.41(10)
_cell_angle_beta 109.57(10)
_cell_angle_gamma 114.26(10)
_cell_volume 638.56
_cell_formula_units_Z 4
_symmetry_space_group_name_H-M 'P -1'
_symmetry_Int_Tables_number 2
_refine_ls_R_factor_all 0.078
loop_
_symmetry_equiv_pos_site_id
_symmetry_equiv_pos_as_xyz
1 '-x, -y, -z'
2 'x, y, z'
loop_
_atom_type_symbol
_atom_type_oxidation_number
Cr6+ 6
O2- -2
Cr6+ 6
O2- -2
Na1+ 1
loop_
_atom_site_label
_atom_site_type_symbol
_atom_site_symmetry_multiplicity
_atom_site_Wyckoff_symbol
_atom_site_fract_x
_atom_site_fract_y
_atom_site_fract_z
_atom_site_B_iso_or_equiv
_atom_site_occupancy
_atom_site_attached_hydrogens
Cr1 Cr6+ 2 i -.1939(3) 0.0119(2) 0.1509(2) . 1. 0
Cr2 Cr6+ 2 i 0.2488(3) 0.0803(2) 0.4091(2) . 1. 0
O1 O2- 2 i -.3849(15) 0.0258(11) 0.1747(9) . 1. 0
O2 O2- 2 i -.2380(16) -.1542(10) 0.1238(10) . 1. 0
O3 O2- 2 i -.1368(16) 0.0913(10) 0.0150(9) . 1. 0
O4 O2- 2 i 0.3598(16) 0.1634(10) 0.5812(9) . 1. 0
O5 O2- 2 i 0.3937(18) 0.1479(12) 0.3109(10) . 1. 0
O6 O2- 2 i 0.1992(20) -.0871(10) 0.4072(10) . 1. 0
O7 O2- 2 i 0.0188(16) 0.0999(10) 0.3237(9) . 1. 0
Cr3 Cr6+ 2 i -.1751(3) 0.5287(2) 0.6285(2) . 1. 0
Cr4 Cr6+ 2 i 0.2332(3) 0.5588(2) 0.9095(2) . 1. 0
O8 O2- 2 i -.3367(19) 0.5531(11) 0.6831(11) . 1. 0
O9 O2- 2 i -.2299(17) 0.3606(9) 0.6031(10) . 1. 0
O10 O2- 2 i -.1591(17) 0.5969(11) 0.4759(9) . 1. 0
O11 O2- 2 i 0.3167(17) 0.6520(11) 0.0729(9) . 1. 0
O12 O2- 2 i 0.4257(17) 0.5752(12) 0.8634(10) . 1. 0
O13 O2- 2 i 0.1086(18) 0.3916(11) 0.9152(11) . 1. 0
O14 O2- 2 i 0.0762(15) 0.6217(9) 0.7693(9) . 1. 0
Na1 Na1+ 2 i 0.3774(10) 0.3511(6) 0.7359(5) . 1. 0
Na2 Na1+ 2 i -.2391(11) 0.2267(6) 0.3930(6) . 1. 0
Na3 Na1+ 2 i 0.2941(11) 0.8263(6) 0.2146(6) . 1. 0
Na4 Na1+ 2 i -.2334(9) 0.7414(5) 0.8979(5) . 1. 0
loop_
_atom_site_aniso_label
_atom_site_aniso_type_symbol
_atom_site_aniso_U_11
_atom_site_aniso_U_22
_atom_site_aniso_U_33
_atom_site_aniso_U_12
_atom_site_aniso_U_13
_atom_site_aniso_U_23
Cr1 Cr6+ 0.0215(15) 0.0229(9) 0.0225(9) 0.0096(11) 0.0051(9) 0.0009(7)
Cr2 Cr6+ 0.0252(15) 0.0249(9) 0.0195(8) 0.0135(11) 0.0071(9) 0.0030(7)
O1 O2- 0.0195(62) 0.0459(53) 0.0309(41) 0.0167(54) 0.0124(40) 0.0098(37)
O2 O2- 0.0342(72) 0.0299(43) 0.0345(43) 0.0141(51) 0.0126(43) -.0009(35)
O3 O2- 0.0273(67) 0.0328(45) 0.0335(43) 0.0041(51) 0.0128(44) 0.0102(35)
O4 O2- 0.0335(71) 0.0341(47) 0.0283(39) 0.0161(52) 0.0050(42) 0.0029(35)
O5 O2- 0.0469(86) 0.0635(68) 0.0304(44) 0.0306(69) 0.0199(46) 0.0176(43)
O6 O2- 0.080(10) 0.0285(46) 0.0388(47) 0.0321(62) 0.0114(55) 0.0117(38)
O7 O2- 0.0313(69) 0.0364(49) 0.0261(39) 0.0124(52) -.0057(42) -.0089(34)
Cr3 Cr6+ 0.0220(15) 0.0210(15) 0.0193(8) 0.0096(10) 0.0056(8) 0.0017(6)
Cr4 Cr6+ 0.0213(15) 0.0240(9) 0.0176(8) 0.0107(11) 0.0058(8) 0.0031(7)
O8 O2- 0.0524(90) 0.0458(58) 0.0548(58) 0.0342(67) 0.0336(56) 0.0131(47)
O9 O2- 0.0403(81) 0.0265(44) 0.0419(48) 0.0094(55) 0.0131(49) -.0043(37)
O10 O2- 0.0430(77) 0.0501(54) 0.0231(38) 0.0261(58) 0.0091(43) 0.0129(37)
O11 O2- 0.0351(73) 0.0460(54) 0.0236(37) 0.0187(57) 0.0078(41) -.0008(36)
O12 O2- 0.0345(74) 0.0546(64) 0.0344(47) 0.0141(63) 0.0170(46) -.0043(43)
O13 O2- 0.0418(83) 0.0367(53) 0.0538(57) 0.0180(61) 0.0101(55) 0.0170(45)
O14 O2- 0.0241(63) 0.0256(40) 0.0305(40) 0.0072(46) -.0047(41) 0.0030(32)
Na1 Na1+ 0.0562(48) 0.0336(26) 0.0281(23) 0.0251(31) 0.0077(26) 0.0043(20)
Na2 Na1+ 0.0458(53) 0.0400(28) 0.0323(24) 0.0106(35) 0.0173(28) 0.0032(21)
Na3 Na1+ 0.0669(53) 0.0480(33) 0.0319(25) 0.0380(38) 0.0201(28) 0.0085(23)
Na4 Na1+ 0.0326(43) 0.0338(26) 0.0320(23) 0.0141(31) 0.0135(24) 0.0061(20)
#End of TTdata_2771-ICSD