
#(C) 2019 by FIZ Karlsruhe - Leibniz Institute for Information Infrastructure.  All rights reserved.
data_280052-ICSD
_database_code_ICSD 280052
_audit_creation_date 2000-07-15
_chemical_name_systematic 'Cadmium sodium vanadium vanadate (3.23/1.41/0.36/3)'
_chemical_formula_structural 'Cd3.23 Na1.41 V0.36 (V O4)3'
_chemical_formula_sum 'Cd3.23 Na1.41 O12 V3.36'
_chemical_name_structure_type Alluaudite
_exptl_crystal_density_diffrn 4.64
_publ_section_title 'Cadmium sodium trivanadate'
loop_
_citation_id
_citation_journal_full
_citation_year
_citation_journal_volume
_citation_page_first
_citation_page_last
_citation_journal_id_ASTM
primary 'Acta Crystallographica, Section C: Crystal Structure Communications'
1999 55 1743 1746 ACSCEE
loop_
_publ_author_name
'El Ammari, L.'
'Azrour, M.'
'Depmeier, W.'
'Hesse, K.F.'
'Elouadi, B.'
_cell_length_a 12.564(4)
_cell_length_b 13.452(4)
_cell_length_c 7.021(2)
_cell_angle_alpha 90.
_cell_angle_beta 113.74(3)
_cell_angle_gamma 90.
_cell_volume 1086.22
_cell_formula_units_Z 4
_symmetry_space_group_name_H-M 'C 1 2/c 1'
_symmetry_Int_Tables_number 15
_refine_ls_R_factor_all 0.036
loop_
_symmetry_equiv_pos_site_id
_symmetry_equiv_pos_as_xyz
1 'x, -y, z+1/2'
2 '-x, -y, -z'
3 '-x, y, -z+1/2'
4 'x, y, z'
5 'x+1/2, -y+1/2, z+1/2'
6 '-x+1/2, -y+1/2, -z'
7 '-x+1/2, y+1/2, -z+1/2'
8 'x+1/2, y+1/2, z'
loop_
_atom_type_symbol
_atom_type_oxidation_number
Cd2+ 2
Na1+ 1
Cd2+ 2
Na1+ 1
Cd2+ 2
V5+ 5
Cd2+ 2
V5+ 5
O2- -2
loop_
_atom_site_label
_atom_site_type_symbol
_atom_site_symmetry_multiplicity
_atom_site_Wyckoff_symbol
_atom_site_fract_x
_atom_site_fract_y
_atom_site_fract_z
_atom_site_B_iso_or_equiv
_atom_site_occupancy
_atom_site_attached_hydrogens
Cd1 Cd2+ 4 b 0 0.5 0.5 . 0.550(3) 0
Na1 Na1+ 4 b 0 0.5 0.5 . 0.450(3) 0
Cd2 Cd2+ 4 e 0 0.9859(3) 0.75 . 0.041(4) 0
Na2 Na1+ 4 e 0 0.9859(3) 0.75 . 0.959(4) 0
Cd3 Cd2+ 8 f 0.71699(3) 0.65529(2) 0.63663(4) . 0.819(3) 0
V3 V5+ 8 f 0.71699(3) 0.65529(2) 0.63663(4) . 0.181(4) 0
Cd4 Cd2+ 4 e 0 0.27268(3) 0.75 . 1. 0
V1 V5+ 8 f 0.72895(5) 0.60904(5) 0.12732(9) . 1. 0
V2 V5+ 4 e 0 0.70621(6) 0.75 . 1. 0
O1 O2- 8 f 0.6547(3) 0.5000(2) 0.1060(5) . 1. 0
O2 O2- 8 f 0.6600(3) 0.6694(2) -.1066(5) . 1. 0
O3 O2- 8 f 0.7170(3) 0.6784(2) 0.3205(5) . 1. 0
O4 O2- 8 f 0.8757(2) 0.5906(2) 0.1883(6) . 1. 0
O5 O2- 8 f -.0422(3) 0.7771(2) 0.5282(5) . 1. 0
O6 O2- 8 f -.1014(3) 0.6237(2) 0.7610(6) . 1. 0
loop_
_atom_site_aniso_label
_atom_site_aniso_type_symbol
_atom_site_aniso_U_11
_atom_site_aniso_U_22
_atom_site_aniso_U_33
_atom_site_aniso_U_12
_atom_site_aniso_U_13
_atom_site_aniso_U_23
Cd1 Cd2+ 0.0641(6) 0.0153(3) 0.0198(4) 0.0009(3) -.0114(4) -.0004(2)
Na1 Na1+ 0.0641(6) 0.0153(3) 0.0198(4) 0.0009(3) -.0114(4) -.0004(2)
Cd2 Cd2+ 0.0205(12) 0.123(3) 0.0182(14) 0 0.0053(10) 0
Na2 Na1+ 0.0205(12) 0.123(3) 0.0182(14) 0 0.0053(10) 0
Cd3 Cd2+ 0.0218(2) 0.0187(2) 0.0140(2) -.00348(10) 0.00712(12) 0.00134(10)
V3 V5+ 0.0218(2) 0.0187(2) 0.0140(2) -.00348(10) 0.00712(12) 0.00134(10)
Cd4 Cd2+ 0.0161(2) 0.0152(2) 0.0238(2) 0 0.0080(2) 0
V1 V5+ 0.0144(3) 0.0191(3) 0.0139(3) -.0019(2) 0.0018(2) 0.0040(2)
V2 V5+ 0.0259(4) 0.0143(4) 0.0136(4) 0 0.0020(4) 0
O1 O2- 0.0231(14) 0.0295(13) 0.031(2) -.0040(11) 0.0085(13) 0.0071(12)
O2 O2- 0.0280(14) 0.0279(14) 0.0188(14) 0.0092(11) 0.0053(12) 0.0061(10)
O3 O2- 0.036(2) 0.039(2) 0.017(2) -.0027(13) 0.0049(14) 0.0004(12)
O4 O2- 0.0179(13) 0.0188(12) 0.061(2) -.0009(10) 0.0090(14) 0.0113(13)
O5 O2- 0.0222(13) 0.0340(15) 0.0172(14) -.0016(11) 0.0041(11) 0.0047(12)
O6 O2- 0.044(2) 0.0260(15) 0.044(2) -.0129(14) 0.004(2) 0.0128(14)
#End of TTdata_280052-ICSD