
#(C) 2019 by FIZ Karlsruhe - Leibniz Institute for Information Infrastructure.  All rights reserved.
data_280154-ICSD
_database_code_ICSD 280154
_audit_creation_date 2000-07-15
_chemical_name_systematic 'Disodium tricalcium ditantalum oxide'
_chemical_formula_structural 'Na2 Ca3 Ta2 O9'
_chemical_formula_sum 'Ca3 Na2 O9 Ta2'
_exptl_crystal_density_diffrn 5.06
_publ_section_title
'Na2 Ca3 Ta2 O9 with a simple stacking of oxygen triangular nets'
loop_
_citation_id
_citation_journal_full
_citation_year
_citation_journal_volume
_citation_page_first
_citation_page_last
_citation_journal_id_ASTM
primary 'Acta Crystallographica, Section C: Crystal Structure Communications'
1999 55 1978 1980 ACSCEE
loop_
_publ_author_name
'Yamane, H.'
'Takahashi, H.'
'Kajiwara, T.'
'Shimada, M.'
_cell_length_a 5.6969(6)
_cell_length_b 5.6969(6)
_cell_length_c 23.5230(30)
_cell_angle_alpha 90.
_cell_angle_beta 90.
_cell_angle_gamma 120.
_cell_volume 661.15
_cell_formula_units_Z 3
_symmetry_space_group_name_H-M 'R 3 2 H'
_symmetry_Int_Tables_number 155
_refine_ls_R_factor_all 0.022
loop_
_symmetry_equiv_pos_site_id
_symmetry_equiv_pos_as_xyz
1 '-x, -x+y, -z'
2 'x-y, -y, -z'
3 'y, x, -z'
4 '-x+y, -x, z'
5 '-y, x-y, z'
6 'x, y, z'
7 '-x+2/3, -x+y+1/3, -z+1/3'
8 'x-y+2/3, -y+1/3, -z+1/3'
9 'y+2/3, x+1/3, -z+1/3'
10 '-x+y+2/3, -x+1/3, z+1/3'
11 '-y+2/3, x-y+1/3, z+1/3'
12 'x+2/3, y+1/3, z+1/3'
13 '-x+1/3, -x+y+2/3, -z+2/3'
14 'x-y+1/3, -y+2/3, -z+2/3'
15 'y+1/3, x+2/3, -z+2/3'
16 '-x+y+1/3, -x+2/3, z+2/3'
17 '-y+1/3, x-y+2/3, z+2/3'
18 'x+1/3, y+2/3, z+2/3'
loop_
_atom_type_symbol
_atom_type_oxidation_number
O2- -2
Ta5+ 5
Na1+ 1
Ca2+ 2
loop_
_atom_site_label
_atom_site_type_symbol
_atom_site_symmetry_multiplicity
_atom_site_Wyckoff_symbol
_atom_site_fract_x
_atom_site_fract_y
_atom_site_fract_z
_atom_site_B_iso_or_equiv
_atom_site_occupancy
_atom_site_attached_hydrogens
O1 O2- 18 f 0.0534(15) 0.3162(15) 0.1040(2) . 1. 0
O2 O2- 9 d 0.2617(18) 0 0 . 1. 0
Ta1 Ta5+ 6 c 0 0 0.064810(17) . 1. 0
Na1 Na1+ 6 c 0 0 0.2020(2) . 1. 0
Ca1 Ca2+ 6 c 0 0 0.36845(9) . 1. 0
Ca2 Ca2+ 3 b 0 0 0.5 . 1. 0
loop_
_atom_site_aniso_label
_atom_site_aniso_type_symbol
_atom_site_aniso_U_11
_atom_site_aniso_U_22
_atom_site_aniso_U_33
_atom_site_aniso_U_12
_atom_site_aniso_U_13
_atom_site_aniso_U_23
O1 O2- 0.015(4) 0.013(4) 0.009(3) 0.002(3) -.002(3) -.006(2)
O2 O2- 0.010(3) 0.010(5) 0.020(4) 0.005(2) 0.0041(19) 0.008(4)
Ta1 Ta5+ 0.0067(3) 0.0067(3) 0.0066(3) 0.00333(13) 0 0
Na1 Na1+ 0.0116(16) 0.0116(16) 0.028(3) 0.0058(8) 0 0
Ca1 Ca2+ 0.0075(7) 0.0075(7) 0.0106(11) 0.0038(3) 0 0
Ca2 Ca2+ 0.0101(10) 0.0101(10) 0.0110(14) 0.0051(5) 0 0
#End of TTdata_280154-ICSD