
#(C) 2019 by FIZ Karlsruhe - Leibniz Institute for Information Infrastructure.  All rights reserved.
data_280175-ICSD
_database_code_ICSD 280175
_audit_creation_date 2000-07-15
_audit_update_record 2010-08-01
_chemical_name_systematic 'Sodium cobalt phosphate(V)'
_chemical_formula_structural 'Na Co (P O4)'
_chemical_formula_sum 'Co1 Na1 O4 P1'
_chemical_name_structure_type NaCoPO4(mP28)
_exptl_crystal_density_diffrn 3.05
_cell_measurement_temperature 150.
_publ_section_title
'A new modification of Na Co PO 4 with the zeolite ABW structure'
loop_
_citation_id
_citation_journal_full
_citation_year
_citation_journal_volume
_citation_page_first
_citation_page_last
_citation_journal_id_ASTM
primary 'Acta Crystallographica, Section C: Crystal Structure Communications'
1999 55 845 847 ACSCEE
loop_
_publ_author_name
'Chippindale, A.M.'
'Cowley, A.R.'
'Chen, J.'
'Gao, Q.'
'Xu, R.'
_cell_length_a 5.221(1)
_cell_length_b 9.983(1)
_cell_length_c 7.388(1)
_cell_angle_alpha 90.
_cell_angle_beta 90.210(4)
_cell_angle_gamma 90.
_cell_volume 385.07
_cell_formula_units_Z 4
_symmetry_space_group_name_H-M 'P 1 21/n 1'
_symmetry_Int_Tables_number 14
_refine_ls_R_factor_all 0.0182
loop_
_symmetry_equiv_pos_site_id
_symmetry_equiv_pos_as_xyz
1 '-x+1/2, y+1/2, -z+1/2'
2 '-x, -y, -z'
3 'x+1/2, -y+1/2, z+1/2'
4 'x, y, z'
loop_
_atom_type_symbol
_atom_type_oxidation_number
Na1+ 1
Co2+ 2
P5+ 5
O2- -2
loop_
_atom_site_label
_atom_site_type_symbol
_atom_site_symmetry_multiplicity
_atom_site_Wyckoff_symbol
_atom_site_fract_x
_atom_site_fract_y
_atom_site_fract_z
_atom_site_B_iso_or_equiv
_atom_site_occupancy
_atom_site_attached_hydrogens
Na1 Na1+ 4 e 0.21602(11) 0.38243(7) 0.01491(7) . 1. 0
Co1 Co2+ 4 e 0.20259(4) 0.330360(18) 0.50677(2) . 1. 0
P1 P5+ 4 e 0.69868(7) 0.40172(3) 0.27901(4) . 1. 0
O1 O2- 4 e 0.4126(2) 0.37059(12) 0.29603(13) . 1. 0
O2 O2- 4 e 0.7506(2) 0.55224(11) 0.28597(13) . 1. 0
O3 O2- 4 e 0.7830(2) 0.3566(1) 0.08752(14) . 1. 0
O4 O2- 4 e 0.8450(2) 0.3274(1) 0.42783(14) . 1. 0
loop_
_atom_site_aniso_label
_atom_site_aniso_type_symbol
_atom_site_aniso_U_11
_atom_site_aniso_U_22
_atom_site_aniso_U_33
_atom_site_aniso_U_12
_atom_site_aniso_U_13
_atom_site_aniso_U_23
Na1 Na1+ 0.0095(4) 0.0090(3) 0.0046(3) 0.0010(2) 0.0007(2) 0.00080(19)
Co1 Co2+ 0.0051(2) 0.00298(16) 0.00226(15) -.00026(6) 0.00001(9) 0.00019(6)
P1 P5+ 0.0040(2) 0.0021(2) 0.0013(2) -.00062(1) 0.00014(13) -.0003(1)
O1 O2- 0.0068(6) 0.0134(5) 0.0046(5) -.0012(4) 0.0004(3) 0.0013(4)
O2 O2- 0.0163(6) 0.0035(5) 0.0037(5) -.0019(4) -.0006(4) -.0006(3)
O3 O2- 0.0100(6) 0.0053(5) 0.0035(4) -.0018(4) 0.0022(4) -.0022(3)
O4 O2- 0.0074(7) 0.0074(5) 0.0060(5) -.0003(3) -.0019(4) 0.0019(3)
#End of TTdata_280175-ICSD