
#(C) 2019 by FIZ Karlsruhe - Leibniz Institute for Information Infrastructure.  All rights reserved.
data_280169-ICSD
_database_code_ICSD 280169
_audit_creation_date 2000-07-15
_audit_update_record 2012-02-01
_chemical_name_systematic 'Disodium magnesium bis(sulfate(VI)) tetrahydrate'
_chemical_formula_structural 'Na2 Mg (S O4)2 (H2 O)4'
_chemical_formula_sum 'H8 Mg1 Na2 O12 S2'
_chemical_name_structure_type Bloedite
_chemical_name_mineral Bloedite
_exptl_crystal_density_diffrn 2.22
_publ_section_title
'Na2 Mg (S O4)2 . 4(H2 O), the Mg end-member of the bloeditetype of mineral'
loop_
_citation_id
_citation_journal_full
_citation_year
_citation_journal_volume
_citation_page_first
_citation_page_last
_citation_journal_id_ASTM
primary 'Acta Crystallographica, Section C: Crystal Structure Communications'
1999 55 8 11 ACSCEE
loop_
_publ_author_name
'Vizcayno, C.'
'Garcia-Gonzalez, M.T.'
_cell_length_a 11.129(1)
_cell_length_b 8.247(1)
_cell_length_c 5.5395(3)
_cell_angle_alpha 90.
_cell_angle_beta 100.88(1)
_cell_angle_gamma 90.
_cell_volume 499.28
_cell_formula_units_Z 2
_symmetry_space_group_name_H-M 'P 1 21/a 1'
_symmetry_Int_Tables_number 14
_refine_ls_R_factor_all 0.0294
loop_
_symmetry_equiv_pos_site_id
_symmetry_equiv_pos_as_xyz
1 'x+1/2, -y+1/2, z'
2 '-x, -y, -z'
3 '-x+1/2, y+1/2, -z'
4 'x, y, z'
loop_
_atom_type_symbol
_atom_type_oxidation_number
S6+ 6
Mg2+ 2
Na1+ 1
O2- -2
H1+ 1
O2- -2
H1+ 1
loop_
_atom_site_label
_atom_site_type_symbol
_atom_site_symmetry_multiplicity
_atom_site_Wyckoff_symbol
_atom_site_fract_x
_atom_site_fract_y
_atom_site_fract_z
_atom_site_B_iso_or_equiv
_atom_site_occupancy
_atom_site_attached_hydrogens
S1 S6+ 4 e 0.13642(4) 0.29066(6) 0.36936(9) . 1. 0
Mg1 Mg2+ 2 a 0 0 0 . 1. 0
Na1 Na1+ 4 e 0.36171(8) 0.07038(11) 0.1308(2) . 1. 0
O1 O2- 4 e 0.26635(13) 0.2713(2) 0.3476(3) . 1. 0
O2 O2- 4 e 0.07049(15) 0.1370(2) 0.3057(3) . 1. 0
O3 O2- 4 e 0.08003(14) 0.4211(2) 0.2091(3) . 1. 0
O4 O2- 4 e 0.13223(15) 0.3284(2) 0.6292(3) . 1. 0
O5 O2- 4 e 0.16021(14) 0.0376(2) -.1271(3) . 1. 0
H1 H1+ 4 e 0.176(3) -.032(5) -.219(6) 0.038(9) 1. 0
H2 H1+ 4 e 0.152(3) 0.114(5) -.210(7) 0.039(10) 1. 0
O6 O2- 4 e 0.0810(2) -.2085(2) 0.1771(3) . 1. 0
H3 H1+ 4 e 0.044(4) -.263(5) 0.194(8) 0.052(14) 1. 0
H4 H1+ 4 e 0.136(3) -.200(4) 0.318(7) 0.043(10) 1. 0
loop_
_atom_site_aniso_label
_atom_site_aniso_type_symbol
_atom_site_aniso_U_11
_atom_site_aniso_U_22
_atom_site_aniso_U_33
_atom_site_aniso_U_12
_atom_site_aniso_U_13
_atom_site_aniso_U_23
S1 S6+ 0.0091(3) 0.0126(3) 0.0133(3) -.0012(2) 0.0029(2) 0.0004(2)
Mg1 Mg2+ 0.0091(5) 0.0120(5) 0.0147(5) -.0008(3) 0.0038(4) -.0007(4)
Na1 Na1+ 0.0161(5) 0.0217(5) 0.0256(5) 0.0012(3) 0.0036(4) -.0011(3)
O1 O2- 0.0096(8) 0.0225(8) 0.0301(9) 0.0017(6) 0.0057(6) 0.0021(7)
O2 O2- 0.0229(8) 0.0194(8) 0.0194(8) -.0099(6) 0.0051(6) -.0044(6)
O3 O2- 0.0152(8) 0.0228(9) 0.0272(9) 0.0033(6) 0.0043(6) 0.0108(7)
O4 O2- 0.0307(9) 0.0179(8) 0.0176(8) -.0036(7) 0.0074(7) -.0042(6)
O5 O2- 0.0146(8) 0.0173(8) 0.0196(8) 0.0010(6) 0.0084(6) 0.0009(7)
O6 O2- 0.0157(8) 0.0161(9) 0.0218(9) -.0028(7) -.0011(7) 0.0023(6)
#End of TTdata_280169-ICSD