
#(C) 2019 by FIZ Karlsruhe - Leibniz Institute for Information Infrastructure.  All rights reserved.
data_280153-ICSD
_database_code_ICSD 280153
_audit_creation_date 2000-07-15
_chemical_name_systematic 'Disodium zinc hydroxide phosphate(V)'
_chemical_formula_structural 'Na2 Zn (O H) (P O4)'
_chemical_formula_sum 'H1 Na2 O5 P1 Zn1'
_chemical_name_structure_type Na2ZnPO4OH
_exptl_crystal_density_diffrn 3.12
_publ_section_title 'Sodium zinc phosphate hydroxide, Na2 Zn (O H) P O4'
loop_
_citation_id
_citation_journal_full
_citation_year
_citation_journal_volume
_citation_page_first
_citation_page_last
_citation_journal_id_ASTM
primary 'Acta Crystallographica, Section C: Crystal Structure Communications'
1999 55 2 2 ACSCEE
loop_
_publ_author_name
'Ng, H.Y.'
'Harrison, W.T.A.'
_cell_length_a 8.5812(10)
_cell_length_b 9.9084(11)
_cell_length_c 5.8016(9)
_cell_angle_alpha 90.
_cell_angle_beta 105.128(10)
_cell_angle_gamma 90.
_cell_volume 476.19
_cell_formula_units_Z 4
_symmetry_space_group_name_H-M 'P 1 21/c 1'
_symmetry_Int_Tables_number 14
_refine_ls_R_factor_all 0.0295
loop_
_symmetry_equiv_pos_site_id
_symmetry_equiv_pos_as_xyz
1 'x, -y+1/2, z+1/2'
2 '-x, -y, -z'
3 '-x, y+1/2, -z+1/2'
4 'x, y, z'
loop_
_atom_type_symbol
_atom_type_oxidation_number
Na1+ 1
Zn2+ 2
P5+ 5
O2- -2
H1+ 1
loop_
_atom_site_label
_atom_site_type_symbol
_atom_site_symmetry_multiplicity
_atom_site_Wyckoff_symbol
_atom_site_fract_x
_atom_site_fract_y
_atom_site_fract_z
_atom_site_B_iso_or_equiv
_atom_site_occupancy
_atom_site_attached_hydrogens
Na1 Na1+ 4 e 0.30329(12) 0.1436(1) 0.68347(19) . 1. 0
Na2 Na1+ 4 e 0.38370(13) 0.83025(12) 0.64472(19) . 1. 0
Zn1 Zn2+ 4 e 0.01080(3) 0.85877(3) 0.77946(4) . 1. 0
P1 P5+ 4 e 0.29550(6) 0.50740(5) 0.63610(9) . 1. 0
O1 O2- 4 e 0.3609(2) 0.36669(17) 0.6163(3) . 1. 0
O2 O2- 4 e 0.1530(2) 0.49829(17) 0.7576(3) . 1. 0
O3 O2- 4 e 0.4203(2) 0.60511(18) 0.7816(3) . 1. 0
O4 O2- 4 e 0.9880(2) 0.69288(16) 0.9427(3) . 1. 0
O5 O2- 4 e 0.2285(2) 0.93488(18) 0.8788(3) . 1. 0
H1 H1+ 4 e 1.0353 0.63095 0.8763 0.017(8) 1. 0
loop_
_atom_site_aniso_label
_atom_site_aniso_type_symbol
_atom_site_aniso_U_11
_atom_site_aniso_U_22
_atom_site_aniso_U_33
_atom_site_aniso_U_12
_atom_site_aniso_U_13
_atom_site_aniso_U_23
Na1 Na1+ 0.0158(5) 0.0165(5) 0.0209(5) 0.0005(3) 0.0047(4) 0.0033(4)
Na2 Na1+ 0.0207(5) 0.0229(5) 0.0169(5) 0.0017(4) 0.0064(4) 0.0024(4)
Zn1 Zn2+ 0.01014(15) 0.01060(16) 0.01021(16) 0.00001(8) 0.00287(9) 0.00010(8)
P1 P5+ 0.0084(2) 0.0084(2) 0.0090(2) -.00024(17) 0.00267(17) 0.00027(16)
O1 O2- 0.0196(8) 0.0099(7) 0.0186(8) 0.0041(6) 0.0050(6) 0.0008(6)
O2 O2- 0.0177(8) 0.0161(8) 0.0217(8) -.0051(6) 0.0130(7) -.0037(6)
O3 O2- 0.0137(7) 0.0184(8) 0.0151(7) -.0069(6) 0.0033(6) -.0039(6)
O4 O2- 0.0224(8) 0.0102(7) 0.0109(6) 0.0007(6) 0.0063(6) 0.0015(6)
O5 O2- 0.0125(7) 0.0198(8) 0.0128(7) -.0045(6) 0.0026(5) -.0043(6)
#End of TTdata_280153-ICSD