
#(C) 2019 by FIZ Karlsruhe - Leibniz Institute for Information Infrastructure.  All rights reserved.
data_280312-ICSD
_database_code_ICSD 280312
_audit_creation_date 2002-04-01
_chemical_name_systematic
'Disodium cobalt tetrakis(dihydrogenophosphate(V)) tetrahydrate'
_chemical_formula_structural 'Na2 Co (H2 P O4)4 (H2 O)4'
_chemical_formula_sum 'H16 Co1 Na2 O20 P4'
_exptl_crystal_density_diffrn 2.21
_publ_section_title 'Na2 Co (H2 P O4) 4 x 4(H2 O)'
loop_
_citation_id
_citation_journal_full
_citation_year
_citation_journal_volume
_citation_page_first
_citation_page_last
_citation_journal_id_ASTM
primary 'Acta Crystallographica, Section C: Crystal Structure Communications'
2000 56 511 512 ACSCEE
loop_
_publ_author_name
'Guesmi, A.'
'Zid, M.F.'
'Driss, A.'
_cell_length_a 7.2516(7)
_cell_length_b 10.723(3)
_cell_length_c 12.142(6)
_cell_angle_alpha 90.
_cell_angle_beta 115.80(1)
_cell_angle_gamma 90.
_cell_volume 850.03
_cell_formula_units_Z 2
_symmetry_space_group_name_H-M 'P 1 21/c 1'
_symmetry_Int_Tables_number 14
_refine_ls_R_factor_all 0.021
loop_
_symmetry_equiv_pos_site_id
_symmetry_equiv_pos_as_xyz
1 'x, -y+1/2, z+1/2'
2 '-x, -y, -z'
3 '-x, y+1/2, -z+1/2'
4 'x, y, z'
loop_
_atom_type_symbol
_atom_type_oxidation_number
Co2+ 2
P5+ 5
Na1+ 1
O2- -2
H1+ 1
loop_
_atom_site_label
_atom_site_type_symbol
_atom_site_symmetry_multiplicity
_atom_site_Wyckoff_symbol
_atom_site_fract_x
_atom_site_fract_y
_atom_site_fract_z
_atom_site_B_iso_or_equiv
_atom_site_occupancy
_atom_site_attached_hydrogens
Co1 Co2+ 2 d 0.5 0 0.5 . 1. 0
P1 P5+ 4 e 0.04192(6) 0.04535(4) 0.28201(4) . 1. 0
P2 P5+ 4 e 0.68066(6) 0.26178(4) 0.41884(4) . 1. 0
Na1 Na1+ 4 e 0.20619(1) 0.32852(7) 0.45911(7) . 1. 0
O1 O2- 4 e 0.2702(2) 0.0307(1) 0.3255(1) . 1. 0
O2 O2- 4 e 0.6820(2) 0.1413(1) 0.4828(1) . 1. 0
O3 O2- 4 e 0.3627(2) 0.1293(1) 0.5834(1) . 1. 0
O4 O2- 4 e -.0893(2) 0.0151(1) 0.1499(1) . 1. 0
O5 O2- 4 e -.0297(2) -.0385(2) 0.3631(1) . 1. 0
O6 O2- 4 e 0.0053(2) 0.1845(1) 0.3073(1) . 1. 0
O7 O2- 4 e 0.6498(2) 0.2468(1) 0.2879(1) . 1. 0
O8 O2- 4 e 0.5075(2) 0.3471(1) 0.4235(1) . 1. 0
O9 O2- 4 e 0.8892(2) 0.3307(1) 0.4892(1) . 1. 0
O10 O2- 4 e 0.4061(2) 0.4394(1) 0.6479(1) 0.0215(3) 1. 0
H1 H1+ 4 e 0.449(4) 0.157(3) 0.643(3) 0.038(7) 1. 0
H2 H1+ 4 e 0.275(4) 0.096(3) 0.604(2) 0.039(7) 1. 0
H3 H1+ 4 e 0.064(3) -.079(3) 0.413(2) 0.050(8) 1. 0
H4 H1+ 4 e -.108(5) 0.196(3) 0.293(3) 0.046(8) 1. 0
H5 H1+ 4 e 0.513(4) 0.411(3) 0.397(3) 0.043(8) 1. 0
H6 H1+ 4 e 0.893(4) 0.369(3) 0.543(3) 0.044(8) 1. 0
H7 H1+ 4 e 0.493(4) 0.386(3) 0.691(2) 0.032(7) 1. 0
H8 H1+ 4 e 0.355(4) 0.457(3) 0.689(3) 0.040(8) 1. 0
loop_
_atom_site_aniso_label
_atom_site_aniso_type_symbol
_atom_site_aniso_U_11
_atom_site_aniso_U_22
_atom_site_aniso_U_33
_atom_site_aniso_U_12
_atom_site_aniso_U_13
_atom_site_aniso_U_23
Co1 Co2+ 0.0106(2) 0.0128(2) 0.0130(2) 0.0000(1) 0.0039(1) 0.0019(1)
P1 P5+ 0.0112(2) 0.0164(2) 0.0118(2) 0.0013(1) 0.0040(2) 0.0007(1)
P2 P5+ 0.0120(2) 0.0114(2) 0.0136(2) -.0004(1) 0.0054(2) 0.0005(1)
Na1 Na1+ 0.0191(3) 0.0192(4) 0.0230(4) -.0009(3) 0.0078(3) -.0004(3)
O1 O2- 0.0257(7) 0.0200(6) 0.0213(6) 0.0060(5) 0.0126(6) 0.0043(5)
O2 O2- 0.0177(6) 0.0173(6) 0.0255(6) -.0011(5) 0.0074(5) 0.0074(5)
O3 O2- 0.0166(6) 0.0202(6) 0.0172(6) -.0023(5) 0.0063(5) -.0025(5)
O4 O2- 0.0226(6) 0.0184(6) 0.0134(6) -.0006(5) 0.0021(5) -.0001(4)
O5 O2- 0.0157(6) 0.0381(8) 0.0244(7) 0.0028(6) 0.0086(6) 0.0149(6)
O6 O2- 0.0171(6) 0.0216(7) 0.0291(7) 0.0019(5) 0.0076(5) -.0086(5)
O7 O2- 0.0187(6) 0.0211(6) 0.0137(6) 0.0015(5) 0.0054(5) -.0002(4)
O8 O2- 0.0200(6) 0.0178(6) 0.0325(7) 0.0034(5) 0.0157(6) 0.0018(5)
O9 O2- 0.0172(6) 0.0217(6) 0.0212(6) -.0063(5) 0.0096(5) -.0082(5)
#End of TTdata_280312-ICSD