
#(C) 2019 by FIZ Karlsruhe - Leibniz Institute for Information Infrastructure.  All rights reserved.
data_280357-ICSD
_database_code_ICSD 280357
_audit_creation_date 2002-04-01
_chemical_name_systematic 'Tetraammonium disodium decavanadate(V) decahydrate'
_chemical_formula_structural '(N H4)4 Na2 (V10 O28) (H2 O)10'
_chemical_formula_sum 'H36 N4 Na2 O38 V10'
_chemical_name_structure_type (NH4)2NaMoV4O14(H2O)5
_exptl_crystal_density_diffrn 2.45
_publ_section_title '(N H4)4 Na2 (V10 O28) . 10 H2 O'
loop_
_citation_id
_citation_journal_full
_citation_year
_citation_journal_volume
_citation_page_first
_citation_page_last
_citation_journal_id_ASTM
primary 'Acta Crystallographica, Section C: Crystal Structure Communications'
2000 56 740 741 ACSCEE
loop_
_publ_author_name
'Fratzky, D.'
'Schneider, M.'
'Rabe, S.'
'Meisel, M.'
_cell_length_a 8.501(2)
_cell_length_b 10.426(2)
_cell_length_c 11.282(2)
_cell_angle_alpha 68.46(3)
_cell_angle_beta 87.30(3)
_cell_angle_gamma 67.14(3)
_cell_volume 851.71
_cell_formula_units_Z 1
_symmetry_space_group_name_H-M 'P -1'
_symmetry_Int_Tables_number 2
_refine_ls_R_factor_all 0.04
loop_
_symmetry_equiv_pos_site_id
_symmetry_equiv_pos_as_xyz
1 '-x, -y, -z'
2 'x, y, z'
loop_
_atom_type_symbol
_atom_type_oxidation_number
V5+ 5
Na1+ 1
O2- -2
N3- -3
H1+ 1
loop_
_atom_site_label
_atom_site_type_symbol
_atom_site_symmetry_multiplicity
_atom_site_Wyckoff_symbol
_atom_site_fract_x
_atom_site_fract_y
_atom_site_fract_z
_atom_site_B_iso_or_equiv
_atom_site_occupancy
_atom_site_attached_hydrogens
V1 V5+ 2 i 0.03006(4) 0.29101(4) 0.23781(3) . 1. 0
V2 V5+ 2 i 0.19030(4) 0.00256(3) 0.48069(3) . 1. 0
V3 V5+ 2 i -.02605(4) 0.00443(3) 0.26033(3) . 1. 0
V4 V5+ 2 i 0.12336(4) -.28293(3) 0.50328(3) . 1. 0
V5 V5+ 2 i 0.32808(4) -.28412(4) 0.72318(3) . 1. 0
Na1 Na1+ 2 i 0.56828(12) -.16738(10) 0.12645(9) . 1. 0
O1 O2- 2 i 0.23957(17) 0.13239(15) 0.35981(13) . 1. 0
O2 O2- 2 i -.06686(15) 0.12408(14) 0.39460(12) . 1. 0
O3 O2- 2 i 0.06164(18) 0.14112(15) 0.17219(13) . 1. 0
O4 O2- 2 i -.01624(18) 0.36875(15) 0.36709(13) . 1. 0
O5 O2- 2 i 0.1116(2) 0.39637(18) 0.13910(15) . 1. 0
O6 O2- 2 i 0.20098(18) -.38051(15) 0.82265(13) . 1. 0
O7 O2- 2 i 0.37517(17) -.12154(15) 0.57503(13) . 1. 0
O8 O2- 2 i 0.10344(16) 0.12031(14) 0.58412(12) . 1. 0
O9 O2- 2 i 0.18432(16) -.11584(14) 0.38562(12) . 1. 0
O10 O2- 2 i 0.0084(2) -.09796(17) 0.17518(14) . 1. 0
O11 O2- 2 i 0.24871(17) -.13473(15) 0.79406(13) . 1. 0
O12 O2- 2 i 0.1573(2) -.38177(16) 0.41571(15) . 1. 0
O13 O2- 2 i 0.32924(17) -.36407(15) 0.59950(13) . 1. 0
O14 O2- 2 i 0.52129(19) -.38231(18) 0.79143(16) . 1. 0
O15 O2- 2 i 0.2915(2) 0.0139(2) 0.01415(18) . 1. 0
O16 O2- 2 i 0.5203(3) -.0084(3) 0.2382(2) . 1. 0
O17 O2- 2 i 0.4685(3) -.3182(3) 0.2952(2) . 1. 0
O18 O2- 2 i -.1556(3) 0.6827(2) 0.2455(2) . 1. 0
O19 O2- 2 i 0.4306(3) 0.3289(2) -.02683(19) . 1. 0
N1 N3- 2 i 0.3218(3) -.7085(3) 0.5108(2) . 1. 0
N2 N3- 2 i -.2163(4) 0.3213(3) -.0696(2) . 1. 0
H1 H1+ 2 i -.116(5) 0.592(5) 0.284(4) 0.064(11) 1. 0
H2 H1+ 2 i -.089(5) 0.700(5) 0.263(4) 0.056(12) 1. 0
H3 H1+ 2 i 0.336(5) 0.428(5) -.078(4) 0.062(11) 1. 0
H4 H1+ 2 i -.165(5) 0.274(4) -.110(3) 0.045(9) 1. 0
H5 H1+ 2 i 0.413(7) 0.290(6) 0.039(5) 0.094(18) 1. 0
H6 H1+ 2 i 0.438(5) 0.030(4) 0.269(3) 0.038(8) 1. 0
H7 H1+ 2 i 0.378(5) -.277(4) 0.315(3) 0.047(10) 1. 0
H8 H1+ 2 i 0.582(6) 0.015(5) 0.238(4) 0.068(14) 1. 0
H9 H1+ 2 i 0.261(9) -.752(8) 0.552(6) 0.14(3) 1. 0
H10 H1+ 2 i 0.497(6) -.401(5) 0.323(4) 0.071(14) 1. 0
H11 H1+ 2 i -.310(9) 0.298(7) -.051(6) 0.13(2) 1. 0
H12 H1+ 2 i 0.397(6) -.748(5) 0.485(4) 0.063(12) 1. 0
H13 H1+ 2 i 0.235(6) 0.031(5) 0.070(5) 0.077(14) 1. 0
H14 H1+ 2 i -.227(8) 0.404(7) -.106(6) 0.11(2) 1. 0
H15 H1+ 2 i 0.270(7) -.635(7) 0.483(5) 0.091(18) 1. 0
H16 H1+ 2 i 0.393(10) -.692(9) 0.559(7) 0.16(3) 1. 0
H17 H1+ 2 i 0.229(6) 0.018(5) -.028(5) 0.076(15) 1. 0
H18 H1+ 2 i -.159(7) 0.293(6) -.009(5) 0.090(17) 1. 0
loop_
_atom_site_aniso_label
_atom_site_aniso_type_symbol
_atom_site_aniso_U_11
_atom_site_aniso_U_22
_atom_site_aniso_U_33
_atom_site_aniso_U_12
_atom_site_aniso_U_13
_atom_site_aniso_U_23
V1 V5+ 0.01847(16) 0.01622(15) 0.02018(15) -.00716(12) 0.00159(11) -.00478(11)
V2 V5+ 0.01055(14) 0.01234(14) 0.01739(15) -.00355(11) 0.00123(10) -.00643(11)
V3 V5+ 0.01947(16) 0.01553(15) 0.01686(15) -.00556(12) 0.00084(11) -.00822(11)
V4 V5+ 0.01895(16) 0.01236(14) 0.02031(16) -.00352(11) 0.00098(11) -.00810(11)
V5 V5+ 0.01465(15) 0.01667(15) 0.02257(16) -.00286(11) -.00286(11) -.00488(12)
Na1 Na1+ 0.0331(5) 0.0277(4) 0.0359(5) -.0124(4) 0.0030(4) -.0129(4)
O1 O2- 0.0162(6) 0.0183(6) 0.0216(6) -.0077(5) 0.0028(5) -.0070(5)
O2 O2- 0.0139(6) 0.0136(5) 0.0180(5) -.0046(4) 0.0008(4) -.0064(4)
O3 O2- 0.0215(6) 0.0190(6) 0.0188(6) -.0082(5) 0.0041(5) -.0084(5)
O4 O2- 0.0218(6) 0.0150(6) 0.0228(6) -.0074(5) 0.0016(5) -.0073(5)
O5 O2- 0.0317(8) 0.0260(7) 0.0282(7) -.0158(6) 0.0062(6) -.0057(6)
O6 O2- 0.0203(6) 0.0171(6) 0.0219(6) -.0056(5) -.0015(5) -.0045(5)
O7 O2- 0.0135(6) 0.0186(6) 0.0242(6) -.0042(5) 0.0006(5) -.0085(5)
O8 O2- 0.0148(5) 0.0144(5) 0.0191(6) -.0048(4) 0.0004(4) -.0080(5)
O9 O2- 0.0147(6) 0.0155(6) 0.0194(6) -.0044(5) 0.0033(4) -.0095(5)
O10 O2- 0.0305(7) 0.0269(7) 0.0246(7) -.0113(6) 0.0047(6) -.0165(6)
O11 O2- 0.0182(6) 0.0189(6) 0.0205(6) -.0054(5) -.0024(5) -.0077(5)
O12 O2- 0.0290(7) 0.0203(7) 0.0315(7) -.0064(6) 0.0029(6) -.0165(6)
O13 O2- 0.0165(6) 0.0154(6) 0.0262(6) -.0008(5) -.0002(5) -.0089(5)
O14 O2- 0.0182(6) 0.0253(7) 0.0355(8) -.0010(6) -.0081(6) -.0088(6)
O15 O2- 0.0278(8) 0.0423(10) 0.0300(8) -.0112(7) 0.0039(7) -.0153(7)
O16 O2- 0.0365(10) 0.0589(13) 0.0742(15) -.0281(10) 0.026(1) -.0526(12)
O17 O2- 0.0448(11) 0.0332(10) 0.0573(13) -.0147(9) 0.0267(10) -.0164(9)
O18 O2- 0.0410(11) 0.0226(8) 0.0674(14) -.0096(8) -.0162(10) -.0100(9)
O19 O2- 0.0513(12) 0.0353(10) 0.0308(9) -.0049(8) -.0034(8) -.0132(7)
N1 N3- 0.0264(9) 0.0267(9) 0.0403(11) -.0083(8) 0.0054(8) -.0193(8)
N2 N3- 0.0484(14) 0.0296(11) 0.0324(11) 0.0003(10) -.0031(10) -.0152(9)
#End of TTdata_280357-ICSD