
#(C) 2019 by FIZ Karlsruhe - Leibniz Institute for Information Infrastructure.  All rights reserved.
data_280725-ICSD
_database_code_ICSD 280725
_audit_creation_date 2002-10-01
_chemical_name_systematic 'Hexasodium trilead tetrakis(thiophosphate(V)) - beta'
_chemical_formula_structural 'Na6 Pb3 (P S4)4'
_chemical_formula_sum 'Na6 P4 Pb3 S16'
_chemical_name_structure_type Na6Pb3(PSe4)4
_exptl_crystal_density_diffrn 3.58
_cell_measurement_temperature 173.
_publ_section_title

;
alpha-(Na6 Pb3 (P S4)4), a noncentrosymmetric thiophosphate with the novel,
saucer-shaped (Pb3 (P S4)4)(6-) cluster, and its metastable, 3-dimensionally
polymerized allotrope beta-(Na6 Pb3 (P S4)4)
;
loop_
_citation_id
_citation_journal_full
_citation_year
_citation_journal_volume
_citation_page_first
_citation_page_last
_citation_journal_id_ASTM
primary 'Inorganic Chemistry' 2001 40 2938 2939 INOCAJ
loop_
_publ_author_name
'Aitken, J.A.'
'Kanatzidis, M.G.'
_cell_length_a 13.730(2)
_cell_length_b 13.730(2)
_cell_length_c 13.730(2)
_cell_angle_alpha 90.
_cell_angle_beta 90.
_cell_angle_gamma 90.
_cell_volume 2588.28
_cell_formula_units_Z 4
_symmetry_space_group_name_H-M 'I -4 3 d'
_symmetry_Int_Tables_number 220
_refine_ls_R_factor_all 0.0302
loop_
_symmetry_equiv_pos_site_id
_symmetry_equiv_pos_as_xyz
1 '-y+1/4, -x+3/4, z+3/4'
2 'y+3/4, -x+1/4, -z+3/4'
3 '-y+3/4, x+3/4, -z+1/4'
4 'y+1/4, x+1/4, z+1/4'
5 'z+1/2, -x+1/2, -y'
6 '-z+1/2, -x, y+1/2'
7 '-z, x+1/2, -y+1/2'
8 'z, x, y'
9 'z+3/4, -y+1/4, -x+3/4'
10 '-z+3/4, y+3/4, -x+1/4'
11 '-z+1/4, -y+3/4, x+3/4'
12 'z+1/4, y+1/4, x+1/4'
13 '-y, z+1/2, -x+1/2'
14 'y+1/2, -z+1/2, -x'
15 '-y+1/2, -z, x+1/2'
16 'y, z, x'
17 '-x+3/4, z+3/4, -y+1/4'
18 '-x+1/4, -z+3/4, y+3/4'
19 'x+3/4, -z+1/4, -y+3/4'
20 'x+1/4, z+1/4, y+1/4'
21 '-x+1/2, -y, z+1/2'
22 '-x, y+1/2, -z+1/2'
23 'x+1/2, -y+1/2, -z'
24 'x, y, z'
25 '-y+3/4, -x+1/4, z+1/4'
26 'y+1/4, -x+3/4, -z+1/4'
27 '-y+1/4, x+1/4, -z+3/4'
28 'y+3/4, x+3/4, z+3/4'
29 'z, -x, -y+1/2'
30 '-z, -x+1/2, y'
31 '-z+1/2, x, -y'
32 'z+1/2, x+1/2, y+1/2'
33 'z+1/4, -y+3/4, -x+1/4'
34 '-z+1/4, y+1/4, -x+3/4'
35 '-z+3/4, -y+1/4, x+1/4'
36 'z+3/4, y+3/4, x+3/4'
37 '-y+1/2, z, -x'
38 'y, -z, -x+1/2'
39 '-y, -z+1/2, x'
40 'y+1/2, z+1/2, x+1/2'
41 '-x+1/4, z+1/4, -y+3/4'
42 '-x+3/4, -z+1/4, y+1/4'
43 'x+1/4, -z+3/4, -y+1/4'
44 'x+3/4, z+3/4, y+3/4'
45 '-x, -y+1/2, z'
46 '-x+1/2, y, -z'
47 'x, -y, -z+1/2'
48 'x+1/2, y+1/2, z+1/2'
loop_
_atom_type_symbol
_atom_type_oxidation_number
Na1+ 1
Pb2+ 2
P5+ 5
S2- -2
loop_
_atom_site_label
_atom_site_type_symbol
_atom_site_symmetry_multiplicity
_atom_site_Wyckoff_symbol
_atom_site_fract_x
_atom_site_fract_y
_atom_site_fract_z
_atom_site_B_iso_or_equiv
_atom_site_occupancy
_atom_site_attached_hydrogens
Na1 Na1+ 24 d -.6549(5) 0 0.25 0.0258(19) 0.5 0
Na2 Na1+ 24 d -.99053(7) 0 0.25 . 0.5 0
Pb1 Pb2+ 24 d -.99053(7) 0 0.25 . 0.5 0
P1 P5+ 16 c -.76819(12) -.76819(12) -.76819(12) . 1. 0
S1 S2- 16 c -.93249(14) -.93249(14) -.93249(14) . 1. 0
S2 S2- 48 e -.86652(12) -.67939(13) -.83579(13) . 1. 0
loop_
_atom_site_aniso_label
_atom_site_aniso_type_symbol
_atom_site_aniso_U_11
_atom_site_aniso_U_22
_atom_site_aniso_U_33
_atom_site_aniso_U_12
_atom_site_aniso_U_13
_atom_site_aniso_U_23
Na2 Na1+ 0.0293(5) 0.0395(5) 0.0271(4) 0 0 -.0004(3)
Pb1 Pb2+ 0.0293(5) 0.0395(5) 0.0271(4) 0 0 -.0004(3)
P1 P5+ 0.0169(7) 0.0169(7) 0.0169(7) 0.0015(6) 0.0015(6) 0.0015(6)
S1 S2- 0.0273(8) 0.0273(8) 0.0273(8) -.0027(8) -.0027(8) -.0027(8)
S2 S2- 0.0217(9) 0.0215(9) 0.0194(10) 0.0031(7) -.0027(7) -.0016(8)
#End of TTdata_280725-ICSD