
#(C) 2019 by FIZ Karlsruhe - Leibniz Institute for Information Infrastructure.  All rights reserved.
data_280729-ICSD
_database_code_ICSD 280729
_audit_creation_date 2002-10-01
_audit_update_record 2012-02-01
_chemical_name_systematic 'Trisodium hexanitrocobaltate(III)'
_chemical_formula_structural 'Na3 (Co (N O2)6)'
_chemical_formula_sum 'Co1 N6 Na3 O12'
_chemical_name_structure_type Na3Co(NO2)6
_exptl_crystal_density_diffrn 2.56
_publ_section_title 'Na3 Co (N O2)6 at 293 and 10 K'
loop_
_citation_id
_citation_journal_full
_citation_year
_citation_journal_volume
_citation_page_first
_citation_page_last
_citation_journal_id_ASTM
primary 'Acta Crystallographica, Section C: Crystal Structure Communications'
2001 57 885 886 ACSCEE
loop_
_publ_author_name
'Figgis, B.N.'
'Sobolev, A.N.'
_cell_length_a 7.806(1)
_cell_length_b 7.806(1)
_cell_length_c 14.867(2)
_cell_angle_alpha 90.
_cell_angle_beta 90.
_cell_angle_gamma 120.
_cell_volume 784.53
_cell_formula_units_Z 3
_symmetry_space_group_name_H-M 'R -3 H'
_symmetry_Int_Tables_number 148
_refine_ls_R_factor_all 0.0197
loop_
_symmetry_equiv_pos_site_id
_symmetry_equiv_pos_as_xyz
1 'x-y, x, -z'
2 'y, -x+y, -z'
3 '-x, -y, -z'
4 '-x+y, -x, z'
5 '-y, x-y, z'
6 'x, y, z'
7 'x-y+2/3, x+1/3, -z+1/3'
8 'y+2/3, -x+y+1/3, -z+1/3'
9 '-x+2/3, -y+1/3, -z+1/3'
10 '-x+y+2/3, -x+1/3, z+1/3'
11 '-y+2/3, x-y+1/3, z+1/3'
12 'x+2/3, y+1/3, z+1/3'
13 'x-y+1/3, x+2/3, -z+2/3'
14 'y+1/3, -x+y+2/3, -z+2/3'
15 '-x+1/3, -y+2/3, -z+2/3'
16 '-x+y+1/3, -x+2/3, z+2/3'
17 '-y+1/3, x-y+2/3, z+2/3'
18 'x+1/3, y+2/3, z+2/3'
loop_
_atom_type_symbol
_atom_type_oxidation_number
Co3+ 3
Na1+ 1
N3+ 3
O2- -2
loop_
_atom_site_label
_atom_site_type_symbol
_atom_site_symmetry_multiplicity
_atom_site_Wyckoff_symbol
_atom_site_fract_x
_atom_site_fract_y
_atom_site_fract_z
_atom_site_B_iso_or_equiv
_atom_site_occupancy
_atom_site_attached_hydrogens
Co1 Co3+ 3 a 0 0 0 . 1. 0
Na1 Na1+ 6 c 0 0 0.26365(7) . 1. 0
Na2 Na1+ 3 b 0 0 0.5 . 1. 0
N1 N3+ 18 f 0.1144(4) -.1292(4) 0.07212(8) . 1. 0
O1 O2- 18 f 0.0984(3) -.1450(3) 0.15415(9) . 1. 0
O2 O2- 18 f 0.2034(4) -.2021(4) 0.03344(8) . 1. 0
loop_
_atom_site_aniso_label
_atom_site_aniso_type_symbol
_atom_site_aniso_U_11
_atom_site_aniso_U_22
_atom_site_aniso_U_33
_atom_site_aniso_U_12
_atom_site_aniso_U_13
_atom_site_aniso_U_23
Co1 Co3+ 0.01245(17) 0.01245(17) 0.0140(2) 0.00622(8) 0 0
Na1 Na1+ 0.0336(4) 0.0336(4) 0.0206(5) 0.01682(18) 0 0
Na2 Na1+ 0.0333(5) 0.0333(5) 0.0217(7) 0.0166(2) 0 0
N1 N3+ 0.0199(9) 0.0175(9) 0.0202(5) 0.0108(4) -.0004(6) 0.0014(6)
O1 O2- 0.0495(13) 0.0443(12) 0.0205(5) 0.0342(11) 0.0021(6) 0.0057(6)
O2 O2- 0.0368(13) 0.0391(14) 0.0319(5) 0.0307(5) 0.0039(9) 0.0007(9)
#End of TTdata_280729-ICSD