
#(C) 2019 by FIZ Karlsruhe - Leibniz Institute for Information Infrastructure.  All rights reserved.
data_280886-ICSD
_database_code_ICSD 280886
_audit_creation_date 2003-04-01
_audit_update_record 2005-10-01
_chemical_name_systematic 'Sodium vanado(V)tellurate(IV)'
_chemical_formula_structural 'Na (V Te O5)'
_chemical_formula_sum 'Na1 O5 Te1 V1'
_chemical_name_structure_type NaVTeO5
_exptl_crystal_density_diffrn 4.21
_publ_section_title 'K V Te O5 and a redetermination of the Na homologue'
loop_
_citation_id
_citation_journal_full
_citation_year
_citation_journal_volume
_citation_page_first
_citation_page_last
_citation_journal_id_ASTM
primary 'Acta Crystallographica, Section C: Crystal Structure Communications'
2002 58 i111 i113 ACSCEE
loop_
_publ_author_name
'Rozier, P.'
'Vendier, L.'
'Galy, J.'
_cell_length_a 5.8840(2)
_cell_length_b 11.3760(3)
_cell_length_c 6.8190(2)
_cell_angle_alpha 90.
_cell_angle_beta 103.0680(17)
_cell_angle_gamma 90.
_cell_volume 444.62
_cell_formula_units_Z 4
_symmetry_space_group_name_H-M 'P 1 21/c 1'
_symmetry_Int_Tables_number 14
_refine_ls_R_factor_all 0.018
loop_
_symmetry_equiv_pos_site_id
_symmetry_equiv_pos_as_xyz
1 'x, -y+1/2, z+1/2'
2 '-x, -y, -z'
3 '-x, y+1/2, -z+1/2'
4 'x, y, z'
loop_
_atom_type_symbol
_atom_type_oxidation_number
Te4+ 4
V5+ 5
Na1+ 1
O2- -2
loop_
_atom_site_label
_atom_site_type_symbol
_atom_site_symmetry_multiplicity
_atom_site_Wyckoff_symbol
_atom_site_fract_x
_atom_site_fract_y
_atom_site_fract_z
_atom_site_B_iso_or_equiv
_atom_site_occupancy
_atom_site_attached_hydrogens
Te1 Te4+ 4 e 0.75799(3) 0.559218(16) 0.40375(3) 0.00835(5) 1. 0
V1 V5+ 4 e 0.32680(9) 0.37936(4) 0.08881(7) 0.00832(13) 1. 0
Na1 Na1+ 4 e 0.8195(2) 0.20668(13) 0.3155(2) 0.0223(3) 1. 0
O1 O2- 4 e 0.1655(4) 0.44580(18) -.1457(3) 0.0126(5) 1. 0
O2 O2- 4 e 0.5392(4) 0.2979(2) 0.0440(4) 0.0166(5) 1. 0
O3 O2- 4 e 0.1399(4) 0.2948(2) 0.1701(3) 0.0155(5) 1. 0
O4 O2- 4 e 0.4374(4) 0.4882(2) 0.2754(3) 0.0134(5) 1. 0
O5 O2- 4 e 0.8750(4) 0.40734(19) 0.4818(3) 0.0116(4) 1. 0
loop_
_atom_site_aniso_label
_atom_site_aniso_type_symbol
_atom_site_aniso_U_11
_atom_site_aniso_U_22
_atom_site_aniso_U_33
_atom_site_aniso_U_12
_atom_site_aniso_U_13
_atom_site_aniso_U_23
Te1 Te4+ 0.00878(14) 0.00925(14) 0.00638(13) 0.00040(6) 0.00037(8) 0.00001(6)
V1 V5+ 0.0086(2) 0.0093(2) 0.0065(2) -0.00068(18) 0.00040(18) -0.00037(18)
Na1 Na1+ 0.0153(6) 0.0293(8) 0.0217(7) 0.0030(6) 0.0028(5) 0.0020(6)
O1 O2- 0.0140(11) 0.0156(11) 0.008(1) 0.0023(8) 0.0019(9) 0.0014(8)
O2 O2- 0.0147(11) 0.0178(11) 0.0172(12) 0.0035(9) 0.0035(9) -0.0014(9)
O3 O2- 0.0169(11) 0.0138(11) 0.0162(11) -0.0021(9) 0.0050(9) 0.0032(9)
O4 O2- 0.0096(10) 0.0166(11) 0.0130(11) -0.0024(9) 0.0002(8) -0.0032(9)
O5 O2- 0.0099(10) 0.0103(10) 0.0129(10) -0.0002(8) -0.0008(8) 0.0022(8)
#End of TTdata_280886-ICSD