
#(C) 2019 by FIZ Karlsruhe - Leibniz Institute for Information Infrastructure.  All rights reserved.
data_280960-ICSD
_database_code_ICSD 280960
_audit_creation_date 2003-04-01
_chemical_name_systematic
'Tetradecaaquatetrasodium hexaaquanickel decavanadate(V) trihydrate'
_chemical_formula_structural '(Na4 (H2 O)14) (Ni (H2 O)6) (V10 O28) (H2 O)3'
_chemical_formula_sum 'H46 Na4 Ni1 O51 V10'
_exptl_crystal_density_diffrn 2.3
_cell_measurement_temperature 298.
_publ_section_title
'Tetradecaaquatetrasodium hexaaquanickel(II) decavanadate(V) trihydrate'
loop_
_citation_id
_citation_journal_full
_citation_year
_citation_journal_volume
_citation_page_first
_citation_page_last
_citation_journal_id_ASTM
primary 'Acta Crystallographica, Section E: Structure Reports Online' 2002 58 34
36 ACSEBH
loop_
_publ_author_name
'Sun, Z.-G.'
'Long, L.-S.'
'Ren, Y.-P.'
'Huang, R.-B.'
'Zheng, L.-S.'
'Ng, S.W.'
_cell_length_a 8.925(2)
_cell_length_b 13.862(3)
_cell_length_c 18.341(4)
_cell_angle_alpha 91.81(3)
_cell_angle_beta 91.85(3)
_cell_angle_gamma 104.32(3)
_cell_volume 2195.63
_cell_formula_units_Z 2
_symmetry_space_group_name_H-M 'P -1'
_symmetry_Int_Tables_number 2
_refine_ls_R_factor_all 0.04
loop_
_symmetry_equiv_pos_site_id
_symmetry_equiv_pos_as_xyz
1 '-x, -y, -z'
2 'x, y, z'
loop_
_atom_type_symbol
_atom_type_oxidation_number
Ni2+ 2
V5+ 5
Na1+ 1
O2- -2
H1+ 1
O2- -2
H1+ 1
O2- -2
H1+ 1
O2- -2
H1+ 1
O2- -2
H1+ 1
O2- -2
H1+ 1
O2- -2
H1+ 1
O2- -2
H1+ 1
O2- -2
H1+ 1
O2- -2
H1+ 1
O2- -2
H1+ 1
O2- -2
H1+ 1
O2- -2
H1+ 1
O2- -2
H1+ 1
O2- -2
H1+ 1
O2- -2
H1+ 1
O2- -2
H1+ 1
O2- -2
H1+ 1
O2- -2
H1+ 1
O2- -2
H1+ 1
O2- -2
H1+ 1
O2- -2
H1+ 1
O2- -2
H1+ 1
O2- -2
H1+ 1
loop_
_atom_site_label
_atom_site_type_symbol
_atom_site_symmetry_multiplicity
_atom_site_Wyckoff_symbol
_atom_site_fract_x
_atom_site_fract_y
_atom_site_fract_z
_atom_site_B_iso_or_equiv
_atom_site_occupancy
_atom_site_attached_hydrogens
Ni1 Ni2+ 2 i 0.51980(6) 0.75713(4) 0.24874(3) 0.02339(14) 1. 0
V1 V5+ 2 i 1.04483(8) 0.88632(5) -.11579(4) 0.01989(17) 1. 0
V2 V5+ 2 i 0.98071(8) 0.89853(5) 0.12389(4) 0.01966(16) 1. 0
V3 V5+ 2 i 1.19773(9) 0.82060(6) 0.02127(4) 0.02303(18) 1. 0
V4 V5+ 2 i 0.84823(9) 0.74714(5) -.00557(4) 0.02337(18) 1. 0
V5 V5+ 2 i 1.18889(8) 1.04061(5) 0.01413(4) 0.01687(16) 1. 0
V6 V5+ 2 i 0.79087(8) 0.25867(5) 0.49586(4) 0.02219(17) 1. 0
V7 V5+ 2 i 1.02179(8) 0.37485(5) 0.38700(4) 0.01882(16) 1. 0
V8 V5+ 2 i 0.81267(8) 0.48000(5) 0.48244(4) 0.01634(16) 1. 0
V9 V5+ 2 i 0.86214(9) 0.70758(6) 0.47248(4) 0.02267(17) 1. 0
V10 V5+ 2 i 1.05245(8) 0.59845(5) 0.37444(4) 0.01836(16) 1. 0
Na1 Na1+ 1 e 0.5 0.5 0 0.0481(8) 1. 0
Na2 Na1+ 2 i 0.7076(2) 0.44162(16) 0.15135(11) 0.0418(5) 1. 0
Na3 Na1+ 2 i 0.4850(2) 0.24783(15) 0.25365(11) 0.0342(4) 1. 0
Na4 Na1+ 2 i 0.2635(2) 0.04865(16) 0.35560(12) 0.0411(5) 1. 0
Na5 Na1+ 1 f 0.5 0 0.5 0.0363(7) 1. 0
O1 O2- 2 i 1.0104(3) 0.9053(2) 0.00392(15) 0.0163(6) 1. 0
O2 O2- 2 i 1.0745(4) 0.8835(2) -.20194(16) 0.0285(7) 1. 0
O3 O2- 2 i 0.8974(3) 0.7729(2) -.10323(16) 0.0232(7) 1. 0
O4 O2- 2 i 1.2035(3) 0.8379(2) -.07840(16) 0.0241(7) 1. 0
O5 O2- 2 i 0.9530(4) 0.9039(2) 0.21043(16) 0.0273(7) 1. 0
O6 O2- 2 i 1.1456(3) 0.8473(2) 0.11791(16) 0.0234(7) 1. 0
O7 O2- 2 i 0.8395(3) 0.7826(2) 0.09280(16) 0.0238(7) 1. 0
O8 O2- 2 i 0.8303(3) 0.9750(2) 0.08851(15) 0.0185(6) 1. 0
O9 O2- 2 i 1.1116(3) 1.0350(2) 0.11259(15) 0.0170(6) 1. 0
O10 O2- 2 i 1.3121(3) 0.9681(2) 0.02871(16) 0.0226(7) 1. 0
O11 O2- 2 i 1.2938(3) 1.1598(2) 0.02227(16) 0.0224(7) 1. 0
O12 O2- 2 i 1.3420(4) 0.7730(2) 0.03757(18) 0.0329(8) 1. 0
O13 O2- 2 i 1.0314(4) 0.7133(2) 0.01179(17) 0.0261(7) 1. 0
O14 O2- 2 i 0.7209(4) 0.6436(2) -.01234(19) 0.0373(8) 1. 0
O15 O2- 2 i 0.9834(3) 0.4014(2) 0.50532(15) 0.0173(6) 1. 0
O16 O2- 2 i 0.6402(4) 0.1671(2) 0.48808(19) 0.0325(8) 1. 0
O17 O2- 2 i 0.6819(3) 0.3695(2) 0.47561(16) 0.0203(6) 1. 0
O18 O2- 2 i 0.8495(3) 0.2756(2) 0.39899(16) 0.0219(6) 1. 0
O19 O2- 2 i 1.1530(3) 0.3067(2) 0.42804(16) 0.0226(7) 1. 0
O20 O2- 2 i 1.0511(4) 0.3652(2) 0.30110(17) 0.0286(7) 1. 0
O21 O2- 2 i 0.8930(3) 0.4734(2) 0.38613(15) 0.0171(6) 1. 0
O22 O2- 2 i 0.9109(3) 0.6713(2) 0.37750(16) 0.0220(6) 1. 0
O23 O2- 2 i 1.0810(3) 0.5882(2) 0.28846(16) 0.0261(7) 1. 0
O24 O2- 2 i 1.2155(3) 0.7013(2) 0.40643(16) 0.0223(7) 1. 0
O25 O2- 2 i 1.0497(3) 0.7990(2) 0.48396(16) 0.0242(7) 1. 0
O26 O2- 2 i 0.7419(4) 0.7732(2) 0.45361(18) 0.0323(8) 1. 0
O27 O2- 2 i 0.7163(3) 0.5680(2) 0.46581(16) 0.0213(6) 1. 0
O28 O2- 2 i 0.8270(3) 0.4966(2) 0.58633(15) 0.0174(6) 1. 0
O29 O2- 2 i 0.7000(6) 0.4267(3) 0.0219(2) 0.0608(12) 1. 0
H1 H1+ 2 i 0.783(5) 0.459(3) 0.004(4) 0.073 1. 0
H2 H1+ 2 i 0.682(6) 0.3656(13) 0.009(3) 0.073 1. 0
O30 O2- 2 i 0.4840(5) 0.5001(3) 0.1301(2) 0.0467(10) 1. 0
H3 H1+ 2 i 0.422(6) 0.449(2) 0.147(3) 0.056 1. 0
H4 H1+ 2 i 0.481(6) 0.551(2) 0.156(3) 0.056 1. 0
O31 O2- 2 i 0.9320(6) 0.3839(3) 0.1567(2) 0.0566(12) 1. 0
H5 H1+ 2 i 0.945(7) 0.333(3) 0.133(2) 0.068 1. 0
H6 H1+ 2 i 0.979(7) 0.388(4) 0.1981(16) 0.068 1. 0
O32 O2- 2 i 0.8688(5) 0.6117(3) 0.1725(2) 0.0432(9) 1. 0
H7 H1+ 2 i 0.900(6) 0.654(3) 0.140(2) 0.052 1. 0
H8 H1+ 2 i 0.826(6) 0.637(3) 0.206(2) 0.052 1. 0
O33 O2- 2 i 0.6518(4) 0.4140(3) 0.27762(19) 0.0358(8) 1. 0
H9 H1+ 2 i 0.724(4) 0.415(4) 0.3090(19) 0.043 1. 0
H10 H1+ 2 i 0.586(4) 0.441(4) 0.296(2) 0.043 1. 0
O34 O2- 2 i 0.5611(4) 0.2584(3) 0.1279(2) 0.0374(8) 1. 0
H11 H1+ 2 i 0.479(3) 0.234(4) 0.102(2) 0.045 1. 0
H12 H1+ 2 i 0.633(3) 0.232(3) 0.115(3) 0.045 1. 0
O35 O2- 2 i 0.2999(4) 0.3351(3) 0.2117(2) 0.0414(9) 1. 0
H13 H1+ 2 i 0.245(4) 0.303(4) 0.1761(18) 0.05 1. 0
H14 H1+ 2 i 0.243(4) 0.352(4) 0.243(2) 0.05 1. 0
O36 O2- 2 i 0.6774(4) 0.1614(3) 0.2886(2) 0.0367(8) 1. 0
H15 H1+ 2 i 0.734(4) 0.191(4) 0.3246(17) 0.044 1. 0
H16 H1+ 2 i 0.734(4) 0.145(4) 0.2561(18) 0.044 1. 0
O37 O2- 2 i 0.3255(4) 0.0814(3) 0.23084(19) 0.0366(8) 1. 0
H17 H1+ 2 i 0.254(4) 0.071(4) 0.1980(19) 0.044 1. 0
H18 H1+ 2 i 0.400(4) 0.059(4) 0.216(2) 0.044 1. 0
O38 O2- 2 i 0.3988(4) 0.2292(3) 0.3776(2) 0.0397(9) 1. 0
H19 H1+ 2 i 0.321(3) 0.251(4) 0.388(3) 0.048 1. 0
H20 H1+ 2 i 0.476(3) 0.259(3) 0.405(2) 0.048 1. 0
O39 O2- 2 i 0.0305(6) 0.0964(4) 0.3530(3) 0.0678(14) 1. 0
H21 H1+ 2 i -.019(6) 0.117(5) 0.386(2) 0.081 1. 0
H22 H1+ 2 i -.019(6) 0.092(5) 0.3124(15) 0.081 1. 0
O40 O2- 2 i 0.1409(4) -.1247(3) 0.3277(2) 0.0366(8) 1. 0
H23 H1+ 2 i 0.104(5) -.149(4) 0.3668(14) 0.044 1. 0
H24 H1+ 2 i 0.070(4) -.129(4) 0.2954(17) 0.044 1. 0
O41 O2- 2 i 0.2364(5) 0.0206(3) 0.4854(2) 0.0487(10) 1. 0
H25 H1+ 2 i 0.172(5) -.0341(18) 0.493(3) 0.058 1. 0
H26 H1+ 2 i 0.214(6) 0.068(2) 0.510(3) 0.058 1. 0
O42 O2- 2 i 0.5033(4) 0.0001(3) 0.3708(2) 0.0395(9) 1. 0
H27 H1+ 2 i 0.497(6) -.0583(13) 0.354(3) 0.047 1. 0
H28 H1+ 2 i 0.562(5) 0.042(2) 0.345(2) 0.047 1. 0
O43 O2- 2 i 0.3900(4) 0.6133(3) 0.25155(18) 0.0298(7) 1. 0
H29 H1+ 2 i 0.2921(13) 0.602(4) 0.252(2) 0.036 1. 0
H30 H1+ 2 i 0.423(4) 0.586(3) 0.2873(18) 0.036 1. 0
O44 O2- 2 i 0.7136(4) 0.7075(3) 0.2697(2) 0.0372(9) 1. 0
H31 H1+ 2 i 0.763(6) 0.704(3) 0.3094(15) 0.045 1. 0
H32 H1+ 2 i 0.700(6) 0.654(2) 0.245(2) 0.045 1. 0
O45 O2- 2 i 0.6469(4) 0.9018(3) 0.24623(19) 0.0325(8) 1. 0
H33 H1+ 2 i 0.7435(16) 0.910(4) 0.242(3) 0.039 1. 0
H34 H1+ 2 i 0.611(4) 0.935(3) 0.215(2) 0.039 1. 0
O46 O2- 2 i 0.3229(4) 0.8034(3) 0.22962(19) 0.0372(9) 1. 0
H35 H1+ 2 i 0.275(5) 0.801(4) 0.1890(12) 0.045 1. 0
H36 H1+ 2 i 0.279(5) 0.829(4) 0.2625(16) 0.045 1. 0
O47 O2- 2 i 0.4932(4) 0.7834(3) 0.35793(16) 0.0265(7) 1. 0
H37 H1+ 2 i 0.568(3) 0.782(3) 0.3872(19) 0.032 1. 0
H38 H1+ 2 i 0.408(2) 0.752(3) 0.375(2) 0.032 1. 0
O48 O2- 2 i 0.5485(4) 0.7312(3) 0.13999(17) 0.0295(8) 1. 0
H39 H1+ 2 i 0.486(3) 0.748(4) 0.110(2) 0.035 1. 0
H40 H1+ 2 i 0.6403(19) 0.749(4) 0.126(2) 0.035 1. 0
O49 O2- 2 i 0.4617(4) 0.5095(3) 0.36387(19) 0.0371(9) 1. 0
H41 H1+ 2 i 0.532(3) 0.535(4) 0.3960(19) 0.044 1. 0
H42 H1+ 2 i 0.373(2) 0.506(4) 0.381(2) 0.044 1. 0
O50 O2- 2 i 0.5382(4) 1.0058(3) 0.14203(19) 0.0378(9) 1. 0
H43 H1+ 2 i 0.482(4) 0.984(4) 0.1041(16) 0.045 1. 0
H44 H1+ 2 i 0.6317(18) 1.008(4) 0.134(2) 0.045 1. 0
O51 O2- 2 i 0.868(2) 0.4466(15) -.0974(11) 0.141(7) 0.5 0
H45 H1+ 2 i 0.90(3) 0.499(9) -.122(10) 0.169 0.5 0
H46 H1+ 2 i 0.90(3) 0.40(1) -.115(11) 0.169 0.5 0
O52 O2- 2 i 0.968(3) 0.480(2) -.0420(12) 0.225(12) 0.5 0
H47 H1+ 1 c 0 0.5 0 0.271 1. 0
H48 H1+ 2 i 0.873(15) 0.45(3) -.043(5) 0.271 0.5 0
loop_
_atom_site_aniso_label
_atom_site_aniso_type_symbol
_atom_site_aniso_U_11
_atom_site_aniso_U_22
_atom_site_aniso_U_33
_atom_site_aniso_U_12
_atom_site_aniso_U_13
_atom_site_aniso_U_23
Ni1 Ni2+ 0.0214(3) 0.0301(3) 0.0203(3) 0.0092(2) 0.0011(2) 0.0027(2)
V1 V5+ 0.0215(4) 0.0228(4) 0.0162(4) 0.0075(3) -0.0002(3) -0.0019(3)
V2 V5+ 0.0216(4) 0.0215(4) 0.0154(4) 0.0045(3) -0.0005(3) 0.0026(3)
V3 V5+ 0.0233(4) 0.0243(4) 0.0242(4) 0.0120(3) -0.0041(3) -0.0005(3)
V4 V5+ 0.0251(4) 0.0183(4) 0.0243(4) 0.0010(3) -0.0020(3) 0.0008(3)
V5 V5+ 0.0127(3) 0.0215(4) 0.0160(4) 0.0037(3) -0.0008(3) -0.0008(3)
V6 V5+ 0.0228(4) 0.0181(4) 0.0225(4) -0.0005(3) -0.0021(3) 0.0013(3)
V7 V5+ 0.0217(4) 0.0203(4) 0.0149(4) 0.0065(3) 0.0000(3) -0.0017(3)
V8 V5+ 0.0129(3) 0.0204(4) 0.0155(4) 0.0040(3) -0.0012(3) 0.0000(3)
V9 V5+ 0.0242(4) 0.0227(4) 0.0233(4) 0.0108(3) -0.0033(3) -0.0002(3)
V10 V5+ 0.0195(4) 0.0199(4) 0.0151(4) 0.0036(3) 0.0005(3) 0.0022(3)
Na1 Na1+ 0.0464(18) 0.0416(18) 0.047(2) -0.0059(14) -0.0150(15) 0.0167(15)
Na2 Na1+ 0.0487(13) 0.0462(13) 0.0348(12) 0.0204(10) -0.0023(10) 0.0026(10)
Na3 Na1+ 0.0314(10) 0.0393(11) 0.0311(11) 0.0074(9) 0.0012(8) 0.0030(9)
Na4 Na1+ 0.0481(13) 0.0412(12) 0.0375(12) 0.0176(10) -0.0003(10) 0.0048(10)
Na5 Na1+ 0.0368(15) 0.0285(14) 0.0376(17) -0.0031(12) -0.0055(13) 0.0086(12)
O1 O2- 0.0155(14) 0.0172(14) 0.0163(15) 0.0048(11) -0.0004(11) -0.0010(12)
O2 O2- 0.0349(18) 0.0330(18) 0.0186(17) 0.0112(15) 0.0003(14) -0.0053(14)
O3 O2- 0.0272(16) 0.0213(16) 0.0198(17) 0.0049(13) -0.0052(13) -0.0047(13)
O4 O2- 0.0246(16) 0.0294(17) 0.0215(17) 0.0142(13) -0.0028(13) -0.0049(13)
O5 O2- 0.0301(17) 0.0347(18) 0.0168(17) 0.0073(14) -0.0008(13) 0.0028(14)
O6 O2- 0.0264(16) 0.0290(17) 0.0170(16) 0.0113(14) -0.0045(13) 0.0026(13)
O7 O2- 0.0259(16) 0.0211(16) 0.0222(17) 0.0009(13) 0.0016(13) 0.0056(13)
O8 O2- 0.0158(14) 0.0232(15) 0.0166(15) 0.0048(12) 0.0024(11) 0.0006(12)
O9 O2- 0.0162(14) 0.0213(15) 0.0137(15) 0.0055(12) -0.0011(11) -0.0002(12)
O10 O2- 0.0168(15) 0.0298(17) 0.0215(17) 0.0069(13) -0.0016(12) -0.0013(13)
O11 O2- 0.0170(14) 0.0271(16) 0.0209(16) 0.0013(12) 0.0009(12) 0.0010(13)
O12 O2- 0.0334(18) 0.0361(19) 0.034(2) 0.0194(15) -0.0098(15) -0.0031(15)
O13 O2- 0.0333(18) 0.0178(15) 0.0284(18) 0.0091(13) -0.0052(14) 0.0022(13)
O14 O2- 0.042(2) 0.0238(18) 0.039(2) -0.0051(15) -0.0050(16) 0.0005(15)
O15 O2- 0.0168(14) 0.0190(15) 0.0163(15) 0.0054(12) -0.0020(11) -0.0003(12)
O16 O2- 0.0297(18) 0.0250(17) 0.036(2) -0.0059(14) -0.0031(15) 0.0010(15)
O17 O2- 0.0144(14) 0.0259(16) 0.0185(16) 0.0014(12) -0.0026(12) 0.0002(12)
O18 O2- 0.0239(16) 0.0191(15) 0.0211(17) 0.0037(12) -0.0035(12) -0.0036(12)
O19 O2- 0.0256(16) 0.0264(16) 0.0182(16) 0.0116(13) -0.0004(13) -0.0034(13)
O20 O2- 0.0354(18) 0.0334(18) 0.0183(17) 0.0115(15) 0.0016(14) -0.0042(14)
O21 O2- 0.0165(14) 0.0207(15) 0.0149(15) 0.0064(12) -0.0004(11) -0.0011(12)
O22 O2- 0.0244(16) 0.0238(16) 0.0182(16) 0.0071(13) -0.0040(12) 0.0025(12)
O23 O2- 0.0282(17) 0.0303(18) 0.0183(17) 0.0041(14) 0.0010(13) 0.0028(13)
O24 O2- 0.0209(15) 0.0228(16) 0.0209(16) 0.0007(12) 0.0007(12) 0.0032(13)
O25 O2- 0.0293(17) 0.0208(16) 0.0213(17) 0.0043(13) -0.0021(13) 0.0022(13)
O26 O2- 0.0358(19) 0.0306(18) 0.036(2) 0.0186(15) -0.0057(15) 0.0022(15)
O27 O2- 0.0165(14) 0.0271(16) 0.0219(16) 0.0087(12) -0.0022(12) 0.0017(13)
O28 O2- 0.0142(14) 0.0241(15) 0.0148(15) 0.0066(12) 0.0019(11) 0.0010(12)
O29 O2- 0.099(4) 0.042(2) 0.048(3) 0.030(2) 0.001(3) 0.003(2)
O30 O2- 0.052(3) 0.041(2) 0.046(3) 0.014(2) -0.0086(19) -0.0107(19)
O31 O2- 0.076(3) 0.069(3) 0.038(3) 0.048(3) -0.017(2) -0.014(2)
O32 O2- 0.059(3) 0.039(2) 0.035(2) 0.0166(19) 0.0054(19) 0.0076(17)
O33 O2- 0.0301(19) 0.052(2) 0.028(2) 0.0161(17) -0.0096(15) -0.0072(17)
O34 O2- 0.034(2) 0.043(2) 0.037(2) 0.0143(17) 0.0023(17) -0.0035(17)
O35 O2- 0.0315(19) 0.060(3) 0.034(2) 0.0161(18) -0.0037(16) -0.0163(19)
O36 O2- 0.0284(18) 0.047(2) 0.032(2) 0.0079(16) -0.0047(15) -0.0134(17)
O37 O2- 0.0319(19) 0.050(2) 0.026(2) 0.0086(17) -0.0082(15) -0.0051(16)
O38 O2- 0.0295(19) 0.060(3) 0.032(2) 0.0158(18) 0.0004(16) -0.0091(18)
O39 O2- 0.079(3) 0.087(3) 0.053(3) 0.055(3) -0.026(3) -0.023(3)
O40 O2- 0.042(2) 0.041(2) 0.028(2) 0.0135(17) -0.0045(16) 0.0096(17)
O41 O2- 0.057(3) 0.048(2) 0.046(3) 0.024(2) 0.003(2) 0.001(2)
O42 O2- 0.047(2) 0.035(2) 0.036(2) 0.0111(18) -0.0021(17) -0.0037(17)
O43 O2- 0.0243(17) 0.0333(19) 0.032(2) 0.0069(15) 0.0037(14) 0.0061(15)
O44 O2- 0.034(2) 0.055(2) 0.029(2) 0.0240(18) -0.0063(16) 0.0008(17)
O45 O2- 0.0268(17) 0.0334(19) 0.038(2) 0.0080(15) 0.0021(15) 0.0063(16)
O46 O2- 0.035(2) 0.059(2) 0.0251(19) 0.0276(18) -0.0003(16) 0.0046(18)
O47 O2- 0.0223(16) 0.041(2) 0.0164(17) 0.0075(15) 0.0042(13) 0.0037(14)
O48 O2- 0.0196(16) 0.049(2) 0.0219(18) 0.0123(16) 0.0010(13) 0.0062(15)
O49 O2- 0.0228(17) 0.058(2) 0.031(2) 0.0108(17) 0.0019(15) 0.0021(18)
O50 O2- 0.0264(18) 0.055(2) 0.031(2) 0.0086(18) -0.0022(15) 0.0054(18)
O51 O2- 0.175(17) 0.142(15) 0.147(16) 0.101(14) 0.089(13) 0.072(13)
O52 O2- 0.24(3) 0.26(3) 0.15(2) 0.00(2) -0.03(2) 0.05(2)
#End of TTdata_280960-ICSD