
#(C) 2019 by FIZ Karlsruhe - Leibniz Institute for Information Infrastructure.  All rights reserved.
data_280939-ICSD
_database_code_ICSD 280939
_audit_creation_date 2003-04-01
_audit_update_record 2005-10-01
_chemical_name_systematic 'Sodium manganese arsenate(V) (1.72/3.28/3)'
_chemical_formula_structural 'Na1.72 Mn3.28 (As O4)3'
_chemical_formula_sum 'As3 Mn3.28 Na1.72 O12'
_chemical_name_structure_type Alluaudite
_exptl_crystal_density_diffrn 4.33
_publ_section_title 'Na1.72 Mn3.28 (As O4)3'
loop_
_citation_id
_citation_journal_full
_citation_year
_citation_journal_volume
_citation_page_first
_citation_page_last
_citation_journal_id_ASTM
primary 'Acta Crystallographica, Section C: Crystal Structure Communications'
2002 58 i98 i100 ACSCEE
loop_
_publ_author_name
'Ayed, B.'
'Krifa, M.'
'Haddad, A.'
_cell_length_a 12.1975(10)
_cell_length_b 12.9531(10)
_cell_length_c 6.754(2)
_cell_angle_alpha 90.
_cell_angle_beta 113.85(4)
_cell_angle_gamma 90.
_cell_volume 975.98
_cell_formula_units_Z 4
_symmetry_space_group_name_H-M 'C 1 2/c 1'
_symmetry_Int_Tables_number 15
_refine_ls_R_factor_all 0.051
loop_
_symmetry_equiv_pos_site_id
_symmetry_equiv_pos_as_xyz
1 'x, -y, z+1/2'
2 '-x, -y, -z'
3 '-x, y, -z+1/2'
4 'x, y, z'
5 'x+1/2, -y+1/2, z+1/2'
6 '-x+1/2, -y+1/2, -z'
7 '-x+1/2, y+1/2, -z+1/2'
8 'x+1/2, y+1/2, z'
loop_
_atom_type_symbol
_atom_type_oxidation_number
As5+ 5
Mn2+ 2
Mn2+ 2.36
Na1+ 1
Mn2+ 2
Na1+ 1
O2- -2
loop_
_atom_site_label
_atom_site_type_symbol
_atom_site_symmetry_multiplicity
_atom_site_Wyckoff_symbol
_atom_site_fract_x
_atom_site_fract_y
_atom_site_fract_z
_atom_site_B_iso_or_equiv
_atom_site_occupancy
_atom_site_attached_hydrogens
As1 As5+ 8 f 0.26553(11) 0.39072(10) 0.37208(19) 0.0130(4) 1. 0
As2 As5+ 4 e 0.5 0.21371(14) 0.25 0.0137(5) 1. 0
Mn1 Mn2+ 4 e 0.5 0.2313(2) -.25 0.0154(6) 1. 0
Mn2 Mn2+ 8 f 0.21981(18) 0.15604(17) 0.1346(3) 0.0206(5) 1. 0
Na1 Na1+ 4 e 0.5 0.5112(7) 0.75 0.0286(19) 1. 0
Mn3 Mn2+ 4 b 0.5 0 0 0.031(2) 0.28(3) 0
Na2 Na1+ 4 b 0.5 0 0 0.031(2) 0.72(3) 0
O1 O2- 8 f 0.1193(7) 0.4051(7) 0.3111(13) 0.0166(18) 1. 0
O2 O2- 8 f 0.4555(8) 0.2890(7) 0.0250(12) 0.0154(18) 1. 0
O3 O2- 8 f 0.3383(8) 0.5049(7) 0.3914(14) 0.022(2) 1. 0
O4 O2- 8 f 0.3378(8) 0.3313(7) 0.6133(14) 0.020(2) 1. 0
O5 O2- 8 f 0.2791(8) 0.3175(8) 0.1736(15) 0.024(2) 1. 0
O6 O2- 8 f 0.3957(10) 0.1303(8) 0.2570(18) 0.037(3) 1. 0
loop_
_atom_site_aniso_label
_atom_site_aniso_type_symbol
_atom_site_aniso_U_11
_atom_site_aniso_U_22
_atom_site_aniso_U_33
_atom_site_aniso_U_12
_atom_site_aniso_U_13
_atom_site_aniso_U_23
As1 As5+ 0.0104(6) 0.0155(7) 0.0104(6) -0.0007(5) 0.0015(4) 0.0026(5)
As2 As5+ 0.0216(10) 0.0083(9) 0.0076(8) 0 0.0021(7) 0
Mn1 Mn2+ 0.0145(13) 0.0122(13) 0.0222(14) 0 0.0103(11) 0
Mn2 Mn2+ 0.0200(11) 0.0228(12) 0.0179(11) -0.0035(9) 0.0064(8) 0.0000(8)
Na1 Na1+ 0.018(4) 0.046(5) 0.019(4) 0 0.005(3) 0
Mn3 Mn2+ 0.043(4) 0.014(3) 0.019(3) -0.003(3) -0.004(2) 0.000(2)
Na2 Na1+ 0.043(4) 0.014(3) 0.019(3) -0.003(3) -0.004(2) 0.000(2)
O1 O2- 0.008(4) 0.020(5) 0.020(4) 0.001(4) 0.003(3) 0.000(4)
O2 O2- 0.015(4) 0.021(5) 0.009(4) -0.002(4) 0.004(3) 0.006(4)
O3 O2- 0.019(4) 0.021(5) 0.022(4) -0.006(4) 0.006(4) 0.004(4)
O4 O2- 0.027(5) 0.018(5) 0.013(4) 0.009(4) 0.007(4) -0.003(4)
O5 O2- 0.025(5) 0.032(6) 0.018(4) -0.001(4) 0.012(4) 0.001(4)
O6 O2- 0.047(7) 0.020(6) 0.039(6) -0.002(5) 0.012(5) 0.005(5)
#End of TTdata_280939-ICSD