
#(C) 2019 by FIZ Karlsruhe - Leibniz Institute for Information Infrastructure.  All rights reserved.
data_280934-ICSD
_database_code_ICSD 280934
_audit_creation_date 2003-04-01
_audit_update_record 2005-10-01
_chemical_name_systematic 'Sodium silver cobalt diphosphate(V)  (1.42/0.58/3/2)'
_chemical_formula_structural '(Na1.42 Ag0.58) Co3 (P2 O7)2'
_chemical_formula_sum 'Ag0.58 Co3 Na1.42 O14 P4'
_chemical_name_structure_type Ag2Mn3(P2O7)2
_exptl_crystal_density_diffrn 4.01
_publ_section_title

;
Sodium silver tricobalt bis(diphosphate) and sodium silver copper(II)
diphosphate
;
loop_
_citation_id
_citation_journal_full
_citation_year
_citation_journal_volume
_citation_page_first
_citation_page_last
_citation_journal_id_ASTM
primary 'Acta Crystallographica, Section C: Crystal Structure Communications'
2002 58 i87 i89 ACSCEE
loop_
_publ_author_name
'Bennazha, J.'
'Boukhari, A.'
'Holt, E.M.'
_cell_length_a 5.296(2)
_cell_length_b 6.359(1)
_cell_length_c 16.238(4)
_cell_angle_alpha 80.93(1)
_cell_angle_beta 81.80(3)
_cell_angle_gamma 72.92(2)
_cell_volume 513.5
_cell_formula_units_Z 2
_symmetry_space_group_name_H-M 'P -1'
_symmetry_Int_Tables_number 2
_refine_ls_R_factor_all 0.04
loop_
_symmetry_equiv_pos_site_id
_symmetry_equiv_pos_as_xyz
1 '-x, -y, -z'
2 'x, y, z'
loop_
_atom_type_symbol
_atom_type_oxidation_number
Co2+ 2
Na1+ 1
Ag1+ 1
Na1+ 1
Ag1+ 1
P5+ 5
O2- -2
P5+ 5
O2- -2
P5+ 5
O2- -2
P5+ 5
O2- -2
loop_
_atom_site_label
_atom_site_type_symbol
_atom_site_symmetry_multiplicity
_atom_site_Wyckoff_symbol
_atom_site_fract_x
_atom_site_fract_y
_atom_site_fract_z
_atom_site_B_iso_or_equiv
_atom_site_occupancy
_atom_site_attached_hydrogens
Co1 Co2+ 2 i 1.23425(11) 0.96160(8) 0.34055(3) 0.00901(14) 1. 0
Co2 Co2+ 2 i 0.80340(12) 0.71808(9) 0.41125(4) 0.01018(14) 1. 0
Co3 Co2+ 2 i 0.96264(12) 0.36526(9) 0.19545(3) 0.00979(14) 1. 0
Na1 Na1+ 2 i 0.09797(17) 0.25188(14) 0.97986(5) 0.0217(3) 0.659(3) 0
Ag1 Ag1+ 2 i 0.09797(17) 0.25188(14) 0.97986(5) 0.0217(3) 0.341(3) 0
Na2 Na1+ 2 i 0.3906(2) 0.72922(16) 0.13722(6) 0.0197(3) 0.765(3) 0
Ag2 Ag1+ 2 i 0.3906(2) 0.72922(16) 0.13722(6) 0.0197(3) 0.235(3) 0
P1 P5+ 2 i 0.8110(2) -.09808(16) 0.21710(6) 0.00766(19) 1. 0
O1 O2- 2 i 0.9431(6) -.3030(5) 0.17431(18) 0.0129(6) 1. 0
O2 O2- 2 i 0.6445(6) -.1368(5) 0.29903(18) 0.0102(5) 1. 0
O3 O2- 2 i 1.0115(6) 0.0257(5) 0.22299(19) 0.0108(5) 1. 0
O4 O2- 2 i 0.5943(6) 0.0482(5) 0.1573(2) 0.0150(6) 1. 0
P2 P5+ 2 i 0.5659(2) 0.25057(17) 0.08228(6) 0.0097(2) 1. 0
O5 O2- 2 i 0.7277(6) 0.3973(5) 0.09851(19) 0.0139(6) 1. 0
O6 O2- 2 i 0.2705(6) 0.3568(5) 0.0910(2) 0.0153(6) 1. 0
O7 O2- 2 i 0.6746(8) 0.1474(6) 0.0030(2) 0.0216(7) 1. 0
P3 P5+ 2 i 0.7048(2) 0.21744(16) 0.45848(6) 0.00687(19) 1. 0
O8 O2- 2 i 0.8802(6) 0.0146(4) 0.41945(18) 0.0092(5) 1. 0
O9 O2- 2 i 0.5896(6) 0.1575(5) 0.54735(17) 0.0099(5) 1. 0
O10 O2- 2 i 0.8365(6) 0.3989(5) 0.4503(2) 0.0134(6) 1. 0
O11 O2- 2 i 0.4405(6) 0.2999(5) 0.41178(18) 0.0132(6) 1. 0
P4 P5+ 2 i 0.3575(2) 0.42729(16) 0.32343(6) 0.00725(19) 1. 0
O12 O2- 2 i 0.1744(6) 0.6529(5) 0.34236(19) 0.0101(5) 1. 0
O13 O2- 2 i 0.2019(6) 0.2891(4) 0.29514(18) 0.0103(5) 1. 0
O14 O2- 2 i 0.5949(7) 0.4470(5) 0.2654(2) 0.0161(6) 1. 0
loop_
_atom_site_aniso_label
_atom_site_aniso_type_symbol
_atom_site_aniso_U_11
_atom_site_aniso_U_22
_atom_site_aniso_U_33
_atom_site_aniso_U_12
_atom_site_aniso_U_13
_atom_site_aniso_U_23
Co1 Co2+ 0.0097(3) 0.0065(2) 0.0105(3) -0.00272(19) 0.0005(2) -0.00060(18)
Co2 Co2+ 0.0103(3) 0.0064(2) 0.0132(3) -0.00295(19) 0.0018(2) -0.00095(18)
Co3 Co2+ 0.0109(3) 0.0082(2) 0.0106(3) -0.0033(2) -0.0015(2) -0.00055(18)
Na1 Na1+ 0.0231(5) 0.0296(5) 0.0156(4) -0.0115(3) 0.0004(3) -0.0062(3)
Ag1 Ag1+ 0.0231(5) 0.0296(5) 0.0156(4) -0.0115(3) 0.0004(3) -0.0062(3)
Na2 Na1+ 0.0161(5) 0.0215(5) 0.0209(5) -0.0039(4) -0.0012(4) -0.0046(3)
Ag2 Ag1+ 0.0161(5) 0.0215(5) 0.0209(5) -0.0039(4) -0.0012(4) -0.0046(3)
P1 P5+ 0.0088(4) 0.0068(4) 0.0078(4) -0.0032(3) 0.0006(3) -0.0017(3)
O1 O2- 0.0178(15) 0.0103(12) 0.0102(13) -0.0041(11) 0.0027(11) -0.0037(10)
O2 O2- 0.0084(13) 0.0135(13) 0.0080(12) -0.0036(11) 0.0026(10) -0.0013(10)
O3 O2- 0.0106(14) 0.0085(12) 0.0141(13) -0.0042(10) -0.0012(11) -0.0008(10)
O4 O2- 0.0130(15) 0.0162(14) 0.0160(14) -0.0070(12) -0.0043(12) 0.0059(11)
P2 P5+ 0.0097(5) 0.0099(4) 0.0091(4) -0.0023(4) -0.0007(4) -0.0010(3)
O5 O2- 0.0152(15) 0.0133(13) 0.0146(14) -0.0065(12) -0.0038(12) 0.0015(11)
O6 O2- 0.0107(14) 0.0166(14) 0.0172(15) -0.0020(12) -0.0016(12) -0.0009(11)
O7 O2- 0.030(2) 0.0205(16) 0.0161(15) -0.0106(15) 0.0030(14) -0.0068(12)
P3 P5+ 0.0074(4) 0.0057(4) 0.0070(4) -0.0016(3) 0.0006(3) -0.0008(3)
O8 O2- 0.0084(13) 0.0065(12) 0.0123(13) -0.0011(10) 0.0001(10) -0.0027(10)
O9 O2- 0.0111(14) 0.0117(12) 0.0060(12) -0.0040(11) 0.0012(10) 0.0009(10)
O10 O2- 0.0143(14) 0.0082(12) 0.0182(14) -0.0059(11) 0.0023(12) -0.0008(11)
O11 O2- 0.0110(14) 0.0148(13) 0.0115(13) -0.0017(11) -0.0034(11) 0.0033(11)
P4 P5+ 0.0078(4) 0.0058(4) 0.0078(4) -0.0017(3) 0.0001(3) -0.0011(3)
O12 O2- 0.0099(13) 0.0066(12) 0.0145(13) -0.0025(10) -0.0016(11) -0.0027(10)
O13 O2- 0.0138(14) 0.0080(12) 0.0119(13) -0.0069(11) -0.0022(11) -0.0014(10)
O14 O2- 0.0149(15) 0.0175(14) 0.0163(14) -0.0077(12) 0.0078(12) -0.0056(11)
#End of TTdata_280934-ICSD