
#(C) 2019 by FIZ Karlsruhe - Leibniz Institute for Information Infrastructure.  All rights reserved.
data_281150-ICSD
_database_code_ICSD 281150
_audit_creation_date 2003-10-01
_chemical_name_systematic
'Disodium hexapotassium bisoxovanadium heptakis(sulfate(VI))'
_chemical_formula_structural 'Na2 K6 (V O)2 (S O4)7'
_chemical_formula_sum 'K6 Na2 O30 S7 V2'
_exptl_crystal_density_diffrn 2.68
_cell_measurement_temperature 298.
_publ_section_title
'Crystal structure and spectroscopic properties of Na2 K6 (V O)2 (S O4)7'
loop_
_citation_id
_citation_journal_full
_citation_year
_citation_journal_volume
_citation_page_first
_citation_page_last
_citation_journal_id_ASTM
primary 'Inorganic Chemistry' 2002 41 2417 2421 INOCAJ
loop_
_publ_author_name
'Karydis, D.A.'
'Boghosian, S.'
'Nielsen, K.'
'Eriksen, K.M.'
'Fehrmann, R.'
_cell_length_a 9.540(3)
_cell_length_b 9.540(3)
_cell_length_c 29.551(5)
_cell_angle_alpha 90.
_cell_angle_beta 90.
_cell_angle_gamma 90.
_cell_volume 2689.48
_cell_formula_units_Z 4
_symmetry_space_group_name_H-M 'P 43 21 2'
_symmetry_Int_Tables_number 96
_refine_ls_R_factor_all 0.0463
loop_
_symmetry_equiv_pos_site_id
_symmetry_equiv_pos_as_xyz
1 'x+1/2, -y+1/2, -z+1/4'
2 '-x+1/2, y+1/2, -z+3/4'
3 '-y, -x, -z+1/2'
4 'y, x, -z'
5 'y+1/2, -x+1/2, z+1/4'
6 '-y+1/2, x+1/2, z+3/4'
7 '-x, -y, z+1/2'
8 'x, y, z'
loop_
_atom_type_symbol
_atom_type_oxidation_number
V5+ 5
S6+ 6
Na1+ 1
K1+ 1
O2- -2
loop_
_atom_site_label
_atom_site_type_symbol
_atom_site_symmetry_multiplicity
_atom_site_Wyckoff_symbol
_atom_site_fract_x
_atom_site_fract_y
_atom_site_fract_z
_atom_site_B_iso_or_equiv
_atom_site_occupancy
_atom_site_attached_hydrogens
V1 V5+ 8 b 0.3274(2) 0.4304(2) -.18522(5) 0.0127(3) 1. 0
S1 S6+ 8 b 0.3863(2) 0.1483(2) -.13135(7) 0.0140(5) 1. 0
S2 S6+ 8 b 0.0599(2) 0.2663(2) -.22342(8) 0.0183(5) 1. 0
S3 S6+ 8 b 0.6466(2) 0.4895(2) -.15426(8) 0.0183(5) 1. 0
S4 S6+ 4 a 0.2871(2) 0.7129(2) -.25 0.0134(7) 1. 0
Na1 Na1+ 8 b 0.1598(4) 0.7276(4) 0.17773(12) 0.0261(9) 1. 0
K1 K1+ 8 b 0.1015(2) 0.4170(2) 0.26897(7) 0.0226(5) 1. 0
K2 K1+ 8 b 0.4404(3) 0.4360(3) 0.06224(8) 0.0478(7) 1. 0
K3 K1+ 8 b 0.8236(2) 0.4919(3) 0.15415(8) 0.0430(7) 1. 0
O1 O2- 8 b 0.4082(6) 0.3527(6) -.2233(2) 0.0230(15) 1. 0
O2 O2- 8 b 0.2160(6) 0.5354(6) -.1261(2) 0.0167(14) 1. 0
O3 O2- 8 b 0.1421(6) 0.3961(6) -.2063(2) 0.0191(15) 1. 0
O4 O2- 8 b 0.2996(6) 0.2767(6) -.1442(2) 0.019(2) 1. 0
O5 O2- 8 b 0.3217(7) 0.6188(6) -.2116(2) 0.026(2) 1. 0
O6 O2- 8 b 0.4825(6) 0.4921(6) -.1513(2) 0.0151(14) 1. 0
O7 O2- 8 b 0.4785(6) 0.1129(6) -.1687(2) 0.023(2) 1. 0
O8 O2- 8 b 0.4598(7) 0.1820(7) -.0906(2) 0.033(2) 1. 0
O9 O2- 8 b 0.1569(6) 0.1598(6) -.2386(2) 0.0246(15) 1. 0
O10 O2- 8 b -.0282(7) 0.3197(7) -.2594(2) 0.035(2) 1. 0
O11 O2- 8 b -.0217(7) 0.2165(7) -.1847(2) 0.030(2) 1. 0
O12 O2- 8 b 0.6876(6) 0.3935(6) -.1894(2) 0.028(2) 1. 0
O13 O2- 8 b 0.6918(6) 0.4490(8) -.1096(2) 0.033(2) 1. 0
O14 O2- 8 b 0.6856(6) 0.6333(6) -.1646(2) 0.035(2) 1. 0
O15 O2- 8 b 0.3103(8) 0.8538(6) -.2344(2) 0.040(2) 1. 0
loop_
_atom_site_aniso_label
_atom_site_aniso_type_symbol
_atom_site_aniso_U_11
_atom_site_aniso_U_22
_atom_site_aniso_U_33
_atom_site_aniso_U_12
_atom_site_aniso_U_13
_atom_site_aniso_U_23
V1 V5+ 0.0135(8) 0.0111(8) 0.0136(7) -0.0012(7) -0.0009(7) 0.0008(7)
S1 S6+ 0.0119(11) 0.0099(11) 0.0202(12) -0.0005(9) -0.0005(10) 0.0028(10)
S2 S6+ 0.0173(12) 0.0159(12) 0.0218(12) 0.0009(11) -0.0037(11) -0.0056(10)
S3 S6+ 0.0140(12) 0.0154(12) 0.0255(12) 0.000(1) 0.0018(11) -0.0009(11)
S4 S6+ 0.0137(10) 0.0137(10) 0.013(2) 0.0015(13) 0.005(1) 0.005(1)
Na1 Na1+ 0.025(2) 0.019(2) 0.034(2) 0.003(2) 0.003(2) 0.002(2)
K1 K1+ 0.0191(11) 0.0243(12) 0.0244(10) 0.0015(10) 0.0011(9) -0.0032(10)
K2 K1+ 0.0361(14) 0.066(2) 0.0414(13) -0.0107(14) 0.0099(13) -0.0188(14)
K3 K1+ 0.0271(13) 0.058(2) 0.0441(14) 0.0197(12) 0.0081(12) 0.0141(14)
O1 O2- 0.025(4) 0.027(4) 0.016(3) -0.004(3) 0.003(3) -0.010(3)
O2 O2- 0.021(3) 0.015(3) 0.014(3) 0.005(3) 0.004(3) 0.002(3)
O3 O2- 0.012(3) 0.016(3) 0.030(3) 0.000(3) -0.005(3) -0.003(3)
O4 O2- 0.021(4) 0.012(3) 0.025(3) 0.004(3) 0.015(3) 0.008(3)
O5 O2- 0.037(4) 0.012(3) 0.029(4) -0.004(3) -0.005(3) 0.007(3)
O6 O2- 0.009(3) 0.025(3) 0.011(3) 0.000(3) -0.002(3) -0.003(3)
O7 O2- 0.021(4) 0.015(3) 0.034(4) 0.005(3) 0.012(3) 0.001(3)
O8 O2- 0.035(4) 0.037(4) 0.027(4) -0.023(4) -0.019(3) 0.010(3)
O9 O2- 0.019(3) 0.021(3) 0.033(4) 0.004(3) 0.007(3) -0.010(3)
O10 O2- 0.035(4) 0.035(4) 0.035(4) 0.004(3) -0.026(3) -0.004(3)
O11 O2- 0.026(4) 0.030(4) 0.033(4) -0.003(3) 0.012(3) -0.002(3)
O12 O2- 0.027(4) 0.021(4) 0.036(4) 0.006(3) 0.009(3) -0.006(3)
O13 O2- 0.025(4) 0.043(4) 0.029(4) 0.005(3) -0.012(3) -0.001(3)
O14 O2- 0.019(4) 0.021(4) 0.066(5) -0.006(3) 0.007(4) 0.002(4)
O15 O2- 0.076(6) 0.012(4) 0.032(4) 0.006(4) 0.010(4) 0.002(3)
#End of TTdata_281150-ICSD