
#(C) 2019 by FIZ Karlsruhe - Leibniz Institute for Information Infrastructure.  All rights reserved.
data_281240-ICSD
_database_code_ICSD 281240
_audit_creation_date 2003-10-01
_chemical_name_systematic 'Sodium cuproarsenate(V)'
_chemical_formula_structural 'Na (Cu As O4)'
_chemical_formula_sum 'As1 Cu1 Na1 O4'
_chemical_name_structure_type NaCoPO4(mP56)
_exptl_crystal_density_diffrn 4.43
_cell_measurement_temperature 298.
_publ_section_title

;
Nanostructured magnetic cuprate cluster: synthesis, structure, UV-vis
spectroscopy and magnetic properties of a new copper(II) arsenate Na Cu As O4
containing discrete (Cu4 O16)(24-) clusters
;
loop_
_citation_id
_citation_journal_full
_citation_year
_citation_journal_volume
_citation_page_first
_citation_page_last
_citation_journal_id_ASTM
primary 'Inorganic Chemistry' 2003 42 2405 2409 INOCAJ
loop_
_publ_author_name
'Ulutagay-Kartin, M.'
'Hwu, S.-J.'
'Clayhold, J.A.'
_cell_length_a 6.0016(12)
_cell_length_b 10.853(2)
_cell_length_c 10.373(2)
_cell_angle_alpha 90.
_cell_angle_beta 91.50(3)
_cell_angle_gamma 90.
_cell_volume 675.42
_cell_formula_units_Z 8
_symmetry_space_group_name_H-M 'P 1 21/c 1'
_symmetry_Int_Tables_number 14
_refine_ls_R_factor_all 0.0275
loop_
_symmetry_equiv_pos_site_id
_symmetry_equiv_pos_as_xyz
1 'x, -y+1/2, z+1/2'
2 '-x, -y, -z'
3 '-x, y+1/2, -z+1/2'
4 'x, y, z'
loop_
_atom_type_symbol
_atom_type_oxidation_number
As5+ 5
Cu2+ 2
Na1+ 1
O2- -2
loop_
_atom_site_label
_atom_site_type_symbol
_atom_site_symmetry_multiplicity
_atom_site_Wyckoff_symbol
_atom_site_fract_x
_atom_site_fract_y
_atom_site_fract_z
_atom_site_B_iso_or_equiv
_atom_site_occupancy
_atom_site_attached_hydrogens
As1 As5+ 4 e 1.12500(5) 0.12101(3) 0.82402(3) 0.00656(14) 1. 0
As2 As5+ 4 e 0.62465(5) 0.36418(3) 0.90753(3) 0.00623(14) 1. 0
Cu1 Cu2+ 4 e 0.63009(7) 0.39840(4) 1.21983(4) 0.01104(15) 1. 0
Cu2 Cu2+ 4 e 0.84769(7) 0.61797(4) 0.98949(4) 0.00910(15) 1. 0
Na1 Na1+ 4 e 0.8744(2) 0.15054(15) 1.11823(14) 0.0162(3) 1. 0
Na2 Na1+ 4 e 0.3706(2) 0.12895(15) 1.11612(15) 0.0201(4) 1. 0
O1 O2- 4 e 1.1297(4) 0.1999(2) 0.6838(2) 0.0113(5) 1. 0
O2 O2- 4 e 1.1175(4) 0.2159(2) 0.9526(2) 0.0118(5) 1. 0
O3 O2- 4 e 0.5950(4) 0.2971(2) 1.0517(2) 0.0107(5) 1. 0
O4 O2- 4 e 0.8521(4) 0.4560(2) 0.9125(2) 0.0095(5) 1. 0
O5 O2- 4 e 0.8943(4) 0.0316(2) 0.8324(2) 0.0105(5) 1. 0
O6 O2- 4 e 0.6541(4) 0.2664(2) 0.7855(2) 0.0125(5) 1. 0
O7 O2- 4 e 1.3581(4) 0.0346(2) 0.8438(2) 0.0119(5) 1. 0
O8 O2- 4 e 0.3849(4) 0.4452(2) 0.8754(2) 0.0097(5) 1. 0
loop_
_atom_site_aniso_label
_atom_site_aniso_type_symbol
_atom_site_aniso_U_11
_atom_site_aniso_U_22
_atom_site_aniso_U_33
_atom_site_aniso_U_12
_atom_site_aniso_U_13
_atom_site_aniso_U_23
As1 As5+ 0.0094(2) 0.0046(2) 0.0056(2) 0.00001(11) -0.00067(13) -0.00036(11)
As2 As5+ 0.0089(2) 0.0042(2) 0.00553(19) -0.00017(11) -0.00067(12) -0.00029(11)
Cu1 Cu2+ 0.0192(2) 0.0049(2) 0.0088(2) -0.00004(16) -0.00236(17) 0.00169(15)
Cu2 Cu2+ 0.0143(2) 0.0045(2) 0.0085(2) -0.00070(14) 0.00018(17) -0.00110(14)
Na1 Na1+ 0.0146(7) 0.0099(7) 0.0242(8) -0.0001(5) 0.0047(6) 0.0016(6)
Na2 Na1+ 0.0160(8) 0.0147(9) 0.0296(9) -0.0007(5) -0.0030(7) 0.0089(6)
O1 O2- 0.0175(12) 0.0092(12) 0.0073(11) 0.0010(9) 0.0011(9) 0.0004(9)
O2 O2- 0.0197(12) 0.0096(12) 0.0060(11) -0.0015(10) -0.0002(9) -0.0009(9)
O3 O2- 0.0181(11) 0.0086(11) 0.0054(11) -0.0020(9) -0.0017(9) 0.0017(9)
O4 O2- 0.0084(10) 0.0084(11) 0.0114(11) -0.0028(9) -0.0015(8) -0.0005(9)
O5 O2- 0.0104(10) 0.0078(12) 0.0133(11) -0.0038(9) -0.0020(8) 0.0024(9)
O6 O2- 0.0210(12) 0.0069(11) 0.0098(11) -0.001(1) 0.0017(9) -0.0031(9)
O7 O2- 0.0099(11) 0.0107(12) 0.0151(12) 0.0027(9) -0.0001(9) 0.0017(10)
O8 O2- 0.0102(10) 0.0086(11) 0.0103(10) 0.0014(9) 0.0002(8) 0.0035(9)
#End of TTdata_281240-ICSD