
#(C) 2019 by FIZ Karlsruhe - Leibniz Institute for Information Infrastructure.  All rights reserved.
data_281281-ICSD
_database_code_ICSD 281281
_audit_creation_date 2003-10-01
_audit_update_record 2008-08-01
_chemical_name_systematic 'Sodium tetracalcium pentaniobate'
_chemical_formula_structural 'Na Ca4 (Nb5 O17)'
_chemical_formula_sum 'Ca4 Na1 Nb5 O17'
_chemical_name_structure_type La5Ti5O17
_exptl_crystal_density_diffrn 4.5
_publ_section_title 'Na Ca4 Nb5 O17: a layered perovskite An Bn O3n+2 compound'
loop_
_citation_id
_citation_journal_full
_citation_year
_citation_journal_volume
_citation_page_first
_citation_page_last
_citation_journal_id_ASTM
primary 'Acta Crystallographica, Section C: Crystal Structure Communications'
2003 59 18 20 ACSCEE
loop_
_publ_author_name
'Zuniga, F.J.'
'Darriet, J.'
_cell_length_a 7.710(2)
_cell_length_b 32.350(5)
_cell_length_c 5.4838(6)
_cell_angle_alpha 90.
_cell_angle_beta 90.
_cell_angle_gamma 96.820(13)
_cell_volume 1358.08
_cell_formula_units_Z 4
_symmetry_space_group_name_H-M 'P 1 1 21/b'
_symmetry_Int_Tables_number 14
_refine_ls_R_factor_all 0.028
loop_
_symmetry_equiv_pos_site_id
_symmetry_equiv_pos_as_xyz
1 'x, y+1/2, -z+1/2'
2 '-x, -y, -z'
3 '-x, -y+1/2, z+1/2'
4 'x, y, z'
loop_
_atom_type_symbol
_atom_type_oxidation_number
Nb5+ 5
Ca2+ 2
Na1+ 1
O2- -2
loop_
_atom_site_label
_atom_site_type_symbol
_atom_site_symmetry_multiplicity
_atom_site_Wyckoff_symbol
_atom_site_fract_x
_atom_site_fract_y
_atom_site_fract_z
_atom_site_B_iso_or_equiv
_atom_site_occupancy
_atom_site_attached_hydrogens
Nb1 Nb5+ 2 a 0 0.5 0.5 0.00471(4) 1. 0
Nb2 Nb5+ 2 d 0.5 0.5 0.5 0.00484(4) 1. 0
Nb3 Nb5+ 4 e 0.04653(5) 0.590626(6) 0.00067(4) 0.00465(3) 1. 0
Nb4 Nb5+ 4 e 0.54524(5) 0.591230(5) -.00065(4) 0.00472(3) 1. 0
Nb5 Nb5+ 4 e 0.08743(5) 0.677064(6) 0.51853(4) 0.00484(3) 1. 0
Nb6 Nb5+ 4 e 0.59507(5) 0.677922(6) 0.52199(4) 0.00481(4) 1. 0
Ca1 Ca2+ 4 e 0.86245(8) 0.721758(14) 0.07847(8) 0.00756(7) 1. 0
Ca2 Ca2+ 4 e 0.36211(9) 0.708872(17) 0.00755(9) 0.01337(8) 1. 0
Ca3 Ca2+ 4 e 0.25409(8) 0.505615(15) 0.00672(11) 0.00775(10) 0.747(3) 0
Ca4 Ca2+ 4 e 0.29892(10) 0.594439(15) 0.49543(9) 0.00737(11) 0.796(4) 0
Ca5 Ca2+ 4 e 0.79183(15) 0.58280(2) 0.50277(13) 0.01099(16) 0.457(4) 0
Na1 Na1+ 4 e 0.25409(8) 0.505615(15) 0.00672(11) 0.00775(10) 0.253(3) 0
Na2 Na1+ 4 e 0.29892(10) 0.594439(15) 0.49543(9) 0.00737(11) 0.204(4) 0
Na3 Na1+ 4 e 0.79183(15) 0.58280(2) 0.50277(13) 0.01099(16) 0.543(4) 0
O1 O2- 4 e 0.2470(3) 0.49542(5) 0.5794(3) 0.0087(3) 1. 0
O2 O2- 4 e -.0183(2) 0.53477(6) 0.7908(4) 0.0089(4) 1. 0
O3 O2- 4 e 0.0687(2) 0.54949(6) 0.2923(4) 0.0085(3) 1. 0
O4 O2- 4 e 0.4819(3) 0.54977(6) 0.2927(4) 0.0088(3) 1. 0
O5 O2- 4 e 0.5528(3) 0.53465(6) 0.7911(4) 0.0095(4) 1. 0
O6 O2- 4 e 0.7926(3) 0.58549(6) 0.0716(3) 0.0104(3) 1. 0
O7 O2- 4 e 0.2891(3) 0.57907(5) -.0781(3) 0.0062(2) 1. 0
O8 O2- 4 e 0.0327(2) 0.61919(6) 0.7006(3) 0.0075(4) 1. 0
O9 O2- 4 e 0.1189(3) 0.63377(7) 0.2103(4) 0.0095(3) 1. 0
O10 O2- 4 e 0.5160(2) 0.63518(6) 0.2051(4) 0.0091(3) 1. 0
O11 O2- 4 e 0.5848(3) 0.61792(6) 0.6952(3) 0.0075(4) 1. 0
O12 O2- 4 e 0.8355(3) 0.66952(5) 0.4234(3) 0.0086(3) 1. 0
O13 O2- 4 e 0.3353(3) 0.66849(5) 0.5878(3) 0.0081(2) 1. 0
O14 O2- 4 e 0.0786(3) 0.71089(6) 0.7871(4) 0.0087(3) 1. 0
O15 O2- 4 e 0.1378(2) 0.71939(6) 0.2962(4) 0.0073(3) 1. 0
O16 O2- 4 e 0.5907(3) 0.72361(6) 0.3153(4) 0.0089(4) 1. 0
O17 O2- 4 e 0.6363(2) 0.70373(6) 0.8102(4) 0.0098(4) 1. 0
loop_
_atom_site_aniso_label
_atom_site_aniso_type_symbol
_atom_site_aniso_U_11
_atom_site_aniso_U_22
_atom_site_aniso_U_33
_atom_site_aniso_U_12
_atom_site_aniso_U_13
_atom_site_aniso_U_23
Nb1 Nb5+ 0.00417(10) 0.00565(9) 0.00432(9) 0.00065(18) 0.00022(18) -0.00015(9)
Nb2 Nb5+ 0.00423(10) 0.00591(10) 0.00442(9) 0.00080(18) 0.00061(18) -0.00034(9)
Nb3 Nb5+ 0.00415(8) 0.00473(7) 0.00496(7) 0.00006(15) 0.00070(12) 0.00002(7)
Nb4 Nb5+ 0.00408(7) 0.00476(7) 0.00518(7) -0.00007(15) 0.00043(12) 0.00010(7)
Nb5 Nb5+ 0.00429(7) 0.00503(7) 0.00517(7) 0.00036(13) 0.00034(11) 0.00001(6)
Nb6 Nb5+ 0.00360(7) 0.00552(7) 0.00513(7) -0.00020(12) -0.00016(11) 0.00011(6)
Ca1 Ca2+ 0.00636(15) 0.00983(16) 0.00648(13) 0.00090(19) 0.0003(2) 0.00034(12)
Ca2 Ca2+ 0.00814(18) 0.0232(2) 0.00920(16) 0.0037(2) 0.0005(2) 0.00124(16)
Ca3 Ca2+ 0.00720(18) 0.0098(2) 0.00636(18) 0.00142(19) 0.0010(3) 0.00126(17)
Ca4 Ca2+ 0.00622(19) 0.00963(19) 0.00642(18) 0.0016(2) 0.0005(3) -0.00100(14)
Ca5 Ca2+ 0.0082(3) 0.0165(3) 0.0083(3) 0.0017(3) 0.0005(4) -0.0038(2)
Na1 Na1+ 0.00720(18) 0.0098(2) 0.00636(18) 0.00142(19) 0.0010(3) 0.00126(17)
Na2 Na1+ 0.00622(19) 0.00963(19) 0.00642(18) 0.0016(2) 0.0005(3) -0.00100(14)
Na3 Na1+ 0.0082(3) 0.0165(3) 0.0083(3) 0.0017(3) 0.0005(4) -0.0038(2)
O1 O2- 0.0045(6) 0.0121(7) 0.0095(6) 0.0013(7) 0.0007(7) -0.0014(5)
O2 O2- 0.0098(9) 0.0088(8) 0.0075(7) -0.0017(6) 0.0033(6) -0.0028(6)
O3 O2- 0.0096(8) 0.0084(9) 0.0072(8) -0.0003(6) 0.0004(6) 0.0017(6)
O4 O2- 0.0104(8) 0.0083(9) 0.0083(8) 0.0031(6) 0.0023(6) 0.0025(7)
O5 O2- 0.0121(9) 0.0091(8) 0.0078(7) 0.0038(6) -0.0023(6) -0.0028(6)
O6 O2- 0.0045(6) 0.0190(8) 0.0079(6) 0.0018(8) 0.0015(8) -0.0004(5)
O7 O2- 0.0031(5) 0.0081(6) 0.0076(5) 0.0011(7) 0.0001(8) 0.0003(5)
O8 O2- 0.0075(10) 0.0075(7) 0.0069(7) -0.0013(6) -0.0010(6) 0.0028(6)
O9 O2- 0.0096(7) 0.0111(9) 0.0081(8) 0.0022(6) -0.0003(6) -0.0036(7)
O10 O2- 0.0091(7) 0.0088(8) 0.0089(8) -0.0001(6) 0.0008(6) -0.0036(7)
O11 O2- 0.0083(10) 0.0092(7) 0.0053(6) 0.0023(6) 0.0013(6) 0.0020(6)
O12 O2- 0.0035(5) 0.0128(7) 0.0095(6) 0.0016(7) -0.0005(8) -0.0008(5)
O13 O2- 0.0037(5) 0.0087(6) 0.0123(6) 0.0018(7) 0.0006(9) 0.0001(5)
O14 O2- 0.0095(9) 0.0107(8) 0.0060(7) 0.0016(6) 0.0011(6) -0.0010(5)
O15 O2- 0.0076(9) 0.0070(7) 0.0075(7) 0.0014(5) 0.0008(6) 0.0015(5)
O16 O2- 0.0095(9) 0.0101(8) 0.0074(7) 0.0020(6) 0.0009(6) 0.0011(5)
O17 O2- 0.0075(8) 0.0148(9) 0.0068(7) 0.0002(6) -0.0010(5) -0.0041(6)
#End of TTdata_281281-ICSD