
#(C) 2019 by FIZ Karlsruhe - Leibniz Institute for Information Infrastructure.  All rights reserved.
data_281268-ICSD
_database_code_ICSD 281268
_audit_creation_date 2003-10-01
_chemical_name_systematic 'Disodium telluro(IV)ditungstate(VI)'
_chemical_formula_structural 'Na2 (Te W2 O9)'
_chemical_formula_sum 'Na2 O9 Te1 W2'
_exptl_crystal_density_diffrn 6.04
_publ_section_title

;
Synthesis, structure and characterization of a new second-harmonic-generating
tellurite: Na2 Te W2 O9
;
loop_
_citation_id
_citation_journal_full
_citation_year
_citation_journal_volume
_citation_page_first
_citation_page_last
_citation_journal_id_ASTM
primary 'Chemistry of Materials' 2002 14 3174 3180 CMATEX
loop_
_publ_author_name
'Goodey, J.'
'Broussard, J.'
'Halasyamani, P.S.'
_cell_length_a 13.1394(5)
_cell_length_b 7.3202(3)
_cell_length_c 31.4435(11)
_cell_angle_alpha 90.
_cell_angle_beta 95.027(1)
_cell_angle_gamma 90.
_cell_volume 3012.7
_cell_formula_units_Z 16
_symmetry_space_group_name_H-M 'I 1 a 1'
_symmetry_Int_Tables_number 9
_refine_ls_R_factor_all 0.0331
loop_
_symmetry_equiv_pos_site_id
_symmetry_equiv_pos_as_xyz
1 'x+1/2, -y, z'
2 'x, y, z'
3 'x, -y+1/2, z+1/2'
4 'x+1/2, y+1/2, z+1/2'
loop_
_atom_type_symbol
_atom_type_oxidation_number
Na1+ 1
W6+ 6
Te4+ 4
O2- -2
loop_
_atom_site_label
_atom_site_type_symbol
_atom_site_symmetry_multiplicity
_atom_site_Wyckoff_symbol
_atom_site_fract_x
_atom_site_fract_y
_atom_site_fract_z
_atom_site_B_iso_or_equiv
_atom_site_occupancy
_atom_site_attached_hydrogens
Na1 Na1+ 4 a 0.2672(10) 0.2378(12) 0.5033(5) 0.028(3) 1. 0
Na2 Na1+ 4 a 0.4235(7) 0.4897(10) 0.8029(3) 0.016(2) 1. 0
Na3 Na1+ 4 a 0.0275(7) 0.5172(13) 0.4989(3) 0.019(2) 1. 0
Na4 Na1+ 4 a 0.2041(6) 0.5066(10) 0.5962(3) 0.0105(17) 1. 0
Na5 Na1+ 4 a 0.5596(10) 0.4863(12) 0.6914(4) 0.032(3) 1. 0
Na6 Na1+ 4 a 0.3011(12) 0.7417(11) 0.6948(5) 0.028(2) 1. 0
Na7 Na1+ 4 a 0.5538(9) 0.9858(13) 0.7011(4) 0.0285(17) 1. 0
Na8 Na1+ 4 a 0.3007(8) 1.0225(14) 0.4002(4) 0.0285(17) 1. 0
W1 W6+ 4 a 0.44469(5) 0.73831(9) 0.60799(3) 0.00715(18) 1. 0
W2 W6+ 4 a 0.44203(6) 0.25205(9) 0.59726(3) 0.00687(18) 1. 0
W3 W6+ 4 a 0.28125(6) 0.74136(9) 0.50170(3) 0.00735(17) 1. 0
W4 W6+ 4 a 0.30579(7) 0.27708(9) 0.69683(3) 0.00895(16) 1. 0
W5 W6+ 4 a 0.06938(6) 0.78029(9) 0.40053(3) 0.00696(16) 1. 0
W6 W6+ 4 a 0.15682(6) 0.25635(9) 0.79220(3) 0.00682(17) 1. 0
W7 W6+ 4 a 0.15686(6) 0.74465(9) 0.78810(3) 0.00777(18) 1. 0
W8 W6+ 4 a 0.06307(6) 0.27122(9) 0.40377(3) 0.00687(16) 1. 0
Te1 Te4+ 4 a 0.41444(12) -.00312(15) 0.78898(5) 0.0086(2) 1. 0
Te2 Te4+ 4 a 0.00518(11) 0.01726(15) 0.49667(4) 0.0080(2) 1. 0
Te3 Te4+ 4 a 0.30205(10) 0.53021(16) 0.41396(4) 0.0098(2) 1. 0
Te4 Te4+ 4 a 0.20097(12) 1.00755(14) 0.60672(5) 0.0079(2) 1. 0
O1 O2- 4 a 0.5616(11) 0.6863(18) 0.5911(5) 0.018(3) 1. 0
O2 O2- 4 a 0.4666(11) 0.7367(16) 0.6641(5) 0.014(3) 1. 0
O3 O2- 4 a 0.3895(12) 0.4942(17) 0.6031(5) 0.015(3) 1. 0
O4 O2- 4 a 0.4623(12) 0.9966(17) 0.6002(5) 0.015(3) 1. 0
O5 O2- 4 a 0.3902(12) 0.7398(16) 0.5410(5) 0.013(3) 1. 0
O6 O2- 4 a 0.2898(11) 0.8100(19) 0.6120(5) 0.017(3) 1. 0
O7 O2- 4 a 0.4467(12) 0.2687(18) 0.5426(5) 0.019(3) 1. 0
O8 O2- 4 a 0.5677(11) 0.3012(19) 0.6187(5) 0.018(3) 1. 0
O9 O2- 4 a 0.2856(10) 0.1896(18) 0.5876(4) 0.012(3) 1. 0
O10 O2- 4 a 0.4045(10) 0.2252(15) 0.6622(4) 0.010(3) 1. 0
O11 O2- 4 a 0.2066(10) 0.9284(17) 0.5163(4) 0.014(3) 1. 0
O12 O2- 4 a 0.2080(11) 0.5603(18) 0.5196(5) 0.015(3) 1. 0
O13 O2- 4 a 0.2209(12) 0.7224(18) 0.4371(5) 0.017(3) 1. 0
O14 O2- 4 a 0.3696(10) 0.5413(16) 0.4695(4) 0.011(2) 1. 0
O15 O2- 4 a 0.3716(10) 0.9494(17) 0.4727(4) 0.011(2) 1. 0
O16 O2- 4 a 0.2320(11) 0.4365(18) 0.6668(5) 0.017(3) 1. 0
O17 O2- 4 a 0.3762(10) 0.4274(18) 0.7321(5) 0.017(3) 1. 0
O18 O2- 4 a 0.3524(11) 0.0379(18) 0.7346(5) 0.018(3) 1. 0
O19 O2- 4 a 0.1842(12) 0.2731(17) 0.7376(5) 0.016(3) 1. 0
O20 O2- 4 a 0.2102(9) 0.0614(16) 0.6653(4) 0.010(2) 1. 0
O21 O2- 4 a -.0521(11) 0.818(2) 0.3755(5) 0.019(3) 1. 0
O22 O2- 4 a 0.1436(11) 0.7134(18) 0.3573(5) 0.015(3) 1. 0
O23 O2- 4 a 0.1168(9) 1.0179(14) 0.4021(4) 0.001(2) 1. 0
O24 O2- 4 a 0.0428(10) 0.5183(15) 0.4159(4) 0.008(2) 1. 0
O25 O2- 4 a 0.0296(9) 0.8171(16) 0.4605(4) 0.009(2) 1. 0
O26 O2- 4 a 0.2781(12) 0.298(2) 0.8179(5) 0.020(3) 1. 0
O27 O2- 4 a 0.1766(11) 0.0010(16) 0.7920(5) 0.012(3) 1. 0
O28 O2- 4 a 0.1047(11) 0.4968(17) 0.7987(5) 0.013(3) 1. 0
O29 O2- 4 a 0.0968(11) 0.1991(19) 0.8510(5) 0.019(3) 1. 0
O30 O2- 4 a 0.0015(10) 0.1880(17) 0.7718(4) 0.013(2) 1. 0
O31 O2- 4 a 0.2828(11) 0.690(2) 0.8019(5) 0.020(3) 1. 0
O32 O2- 4 a 0.1470(13) 0.7352(18) 0.7315(6) 0.022(4) 1. 0
O33 O2- 4 a 0.0009(11) 0.8030(19) 0.7888(5) 0.016(3) 1. 0
O34 O2- 4 a -.0621(11) 0.2060(18) 0.3935(4) 0.013(3) 1. 0
O35 O2- 4 a 0.0665(11) 0.2174(17) 0.4674(5) 0.015(3) 1. 0
O36 O2- 4 a 0.2254(10) 0.3244(17) 0.4254(4) 0.012(2) 1. 0
loop_
_atom_site_aniso_label
_atom_site_aniso_type_symbol
_atom_site_aniso_U_11
_atom_site_aniso_U_22
_atom_site_aniso_U_33
_atom_site_aniso_U_12
_atom_site_aniso_U_13
_atom_site_aniso_U_23
Na1 Na1+ 0.028(7) 0.033(5) 0.021(5) 0.012(4) -0.006(5) -0.004(4)
Na2 Na1+ 0.017(5) 0.017(4) 0.015(5) 0.001(3) 0.002(4) -0.002(3)
Na3 Na1+ 0.019(5) 0.024(5) 0.015(4) 0.011(3) -0.005(4) -0.009(3)
Na4 Na1+ 0.001(4) 0.023(4) 0.008(4) -0.001(3) 0.001(3) -0.002(3)
Na5 Na1+ 0.034(6) 0.021(4) 0.038(7) 0.005(4) -0.018(5) 0.001(4)
Na6 Na1+ 0.037(6) 0.024(4) 0.024(5) -0.017(5) 0.016(4) -0.008(4)
Na7 Na1+ 0.011(3) 0.029(3) 0.044(5) 0.004(2) -0.002(3) -0.015(3)
Na8 Na1+ 0.011(3) 0.029(3) 0.044(5) 0.004(2) -0.002(3) -0.015(3)
W1 W6+ 0.0029(3) 0.0096(3) 0.0084(4) -0.0001(2) -0.0024(3) 0.0004(3)
W2 W6+ 0.0035(3) 0.0083(3) 0.0087(4) 0.0000(2) -0.0002(3) -0.0002(2)
W3 W6+ 0.0033(4) 0.0111(3) 0.0072(4) -0.0003(2) -0.0018(3) -0.0002(2)
W4 W6+ 0.0071(4) 0.0121(3) 0.0075(3) 0.0004(3) -0.0001(3) 0.0007(3)
W5 W6+ 0.0039(3) 0.0100(3) 0.0066(3) 0.0007(3) -0.0016(3) -0.0001(3)
W6 W6+ 0.0049(4) 0.0075(3) 0.0079(4) -0.0006(2) -0.0005(3) 0.0001(2)
W7 W6+ 0.0046(4) 0.0080(3) 0.0107(4) 0.0001(2) 0.0001(3) -0.0003(3)
W8 W6+ 0.0047(4) 0.0087(3) 0.0070(4) -0.0005(3) -0.0005(3) -0.0002(3)
Te1 Te4+ 0.0059(6) 0.0115(6) 0.0080(6) -0.0004(4) -0.0009(4) 0.0004(4)
Te2 Te4+ 0.0062(6) 0.0093(5) 0.0081(6) -0.0001(4) -0.0007(4) 0.0000(4)
Te3 Te4+ 0.0082(6) 0.0104(5) 0.0111(6) -0.0009(4) 0.0019(4) -0.0010(5)
Te4 Te4+ 0.0029(6) 0.0115(5) 0.0093(6) 0.0000(4) -0.0004(4) -0.0007(4)
#End of TTdata_281268-ICSD