
#(C) 2019 by FIZ Karlsruhe - Leibniz Institute for Information Infrastructure.  All rights reserved.
data_281335-ICSD
_database_code_ICSD 281335
_audit_creation_date 2004-04-01
_chemical_name_systematic 'Sodium hexafluorophospate(V) hydrate'
_chemical_formula_structural 'Na (P F6) (H2 O)'
_chemical_formula_sum 'H2 F6 Na1 O1 P1'
_exptl_crystal_density_diffrn 2.45
_cell_measurement_temperature 100.
_publ_section_title 'The correct space group of Na P F6 * (H2 O)'
loop_
_citation_id
_citation_journal_full
_citation_year
_citation_journal_volume
_citation_page_first
_citation_page_last
_citation_journal_id_ASTM
primary 'Acta Crystallographica, Section C: Crystal Structure Communications'
2003 59 i95 i96 ACSCEE
loop_
_publ_author_name
'Guzei, I.A.'
'Langenhan, J.M.'
_cell_length_a 10.559(4)
_cell_length_b 7.898(3)
_cell_length_c 6.057(3)
_cell_angle_alpha 90.
_cell_angle_beta 90.
_cell_angle_gamma 90.
_cell_volume 505.12
_cell_formula_units_Z 4
_symmetry_space_group_name_H-M 'P n n a'
_symmetry_Int_Tables_number 52
_refine_ls_R_factor_all 0.045
loop_
_symmetry_equiv_pos_site_id
_symmetry_equiv_pos_as_xyz
1 'x+1/2, -y+1/2, z+1/2'
2 '-x, y+1/2, z+1/2'
3 'x+1/2, y, -z'
4 '-x, -y, -z'
5 '-x+1/2, y+1/2, -z+1/2'
6 'x, -y+1/2, -z+1/2'
7 '-x+1/2, -y, z'
8 'x, y, z'
loop_
_atom_type_symbol
_atom_type_oxidation_number
P5+ 5
F1- -1
O2- -2
H1+ 1
Na1+ 1
loop_
_atom_site_label
_atom_site_type_symbol
_atom_site_symmetry_multiplicity
_atom_site_Wyckoff_symbol
_atom_site_fract_x
_atom_site_fract_y
_atom_site_fract_z
_atom_site_B_iso_or_equiv
_atom_site_occupancy
_atom_site_attached_hydrogens
P1 P5+ 4 a 0.5 0 0 0.0106(3) 1. 0
F1 F1- 8 e 0.60126(17) 0.8518(2) 0.0330(3) 0.0246(5) 1. 0
F2 F1- 8 e 0.38721(16) 0.8660(2) 0.0199(3) 0.0263(5) 1. 0
F3 F1- 8 e 0.49622(15) 1.0293(2) 0.2604(3) 0.0224(5) 1. 0
O1 O2- 4 c 0.75 0.5 0.0253(4) 0.0145(7) 1. 0
H1 H1+ 8 e 0.686(2) 0.503(4) -.068(5) 0.038(11) 1. 0
Na1 Na1+ 4 d 0.76208(13) 0.75 0.25 0.0144(4) 1. 0
loop_
_atom_site_aniso_label
_atom_site_aniso_type_symbol
_atom_site_aniso_U_11
_atom_site_aniso_U_22
_atom_site_aniso_U_33
_atom_site_aniso_U_12
_atom_site_aniso_U_13
_atom_site_aniso_U_23
P1 P5+ 0.0083(5) 0.0126(5) 0.0109(5) -0.0005(4) -0.0021(4) -0.0010(4)
F1 F1- 0.0236(10) 0.0227(10) 0.0274(10) 0.0128(8) -0.0103(8) -0.0053(8)
F2 F1- 0.0214(10) 0.0278(11) 0.0298(11) -0.0132(8) -0.0054(8) 0.0054(8)
F3 F1- 0.0216(9) 0.0341(10) 0.0116(8) 0.0051(7) -0.0019(8) -0.0054(7)
O1 O2- 0.0110(14) 0.0186(15) 0.0138(14) 0.0011(12) 0 0
Na1 Na1+ 0.0153(8) 0.0136(8) 0.0143(8) 0 0 0.0021(6)
#End of TTdata_281335-ICSD