
#(C) 2019 by FIZ Karlsruhe - Leibniz Institute for Information Infrastructure.  All rights reserved.
data_281376-ICSD
_database_code_ICSD 281376
_audit_creation_date 2004-04-01
_chemical_name_systematic 'Sodium tungstate (0.74/1) - hettotype a(0)a(0)a(+)'
_chemical_formula_structural 'Na0.74 (W O3)'
_chemical_formula_sum 'Na0.74 O3 W1'
_exptl_crystal_density_diffrn 7.23
_cell_measurement_temperature 363.
_publ_section_title 'Structures of Na0.74 W O3'
loop_
_citation_id
_citation_journal_full
_citation_year
_citation_journal_volume
_citation_page_first
_citation_page_last
_citation_journal_id_ASTM
primary 'Acta Crystallographica, Section B: Structural Science' 2003 59 584 587
ASBSDK
loop_
_publ_author_name
'Darlington, C.N.W.'
'Hriljac, J.A.'
'Knight, K.S.'
_cell_length_a 5.44556(2)
_cell_length_b 5.44556(2)
_cell_length_c 3.85598(3)
_cell_angle_alpha 90.
_cell_angle_beta 90.
_cell_angle_gamma 90.
_cell_volume 114.35
_cell_formula_units_Z 2
_symmetry_space_group_name_H-M 'P 4/m b m'
_symmetry_Int_Tables_number 127
_refine_ls_R_factor_all 0.0481
loop_
_symmetry_equiv_pos_site_id
_symmetry_equiv_pos_as_xyz
1 'y+1/2, x+1/2, -z'
2 '-y+1/2, -x+1/2, -z'
3 '-y, x, -z'
4 'y, -x, -z'
5 'x+1/2, -y+1/2, -z'
6 '-x+1/2, y+1/2, -z'
7 'x, y, -z'
8 '-x, -y, -z'
9 '-y+1/2, -x+1/2, z'
10 'y+1/2, x+1/2, z'
11 'y, -x, z'
12 '-y, x, z'
13 '-x+1/2, y+1/2, z'
14 'x+1/2, -y+1/2, z'
15 '-x, -y, z'
16 'x, y, z'
loop_
_atom_type_symbol
_atom_type_oxidation_number
Na1+ 1
W5+ 5.26
O2- -2
loop_
_atom_site_label
_atom_site_type_symbol
_atom_site_symmetry_multiplicity
_atom_site_Wyckoff_symbol
_atom_site_fract_x
_atom_site_fract_y
_atom_site_fract_z
_atom_site_B_iso_or_equiv
_atom_site_occupancy
_atom_site_attached_hydrogens
Na1 Na1+ 2 c 0 0.5 0.5 0.0227(6) 0.74 0
W1 W5+ 2 a 0 0 0 0.0085(3) 1. 0
O1 O2- 2 b 0 0 0.5 0.0122 1. 0
O2 O2- 4 g 0.23390(14) 0.73390(14) 0 0.01401 1. 0
loop_
_atom_site_aniso_label
_atom_site_aniso_type_symbol
_atom_site_aniso_U_11
_atom_site_aniso_U_22
_atom_site_aniso_U_33
_atom_site_aniso_U_12
_atom_site_aniso_U_13
_atom_site_aniso_U_23
O1 O2- 0.015(1) 0.015(1) 0.0065(13) 0 0 0
O2 O2- 0.0126(6) 0.0126(6) 0.0168(9) 0.0039(7) 0 0
#End of TTdata_281376-ICSD