
#(C) 2019 by FIZ Karlsruhe - Leibniz Institute for Information Infrastructure.  All rights reserved.
data_281361-ICSD
_database_code_ICSD 281361
_audit_creation_date 2004-04-01
_audit_update_record 2006-04-01
_chemical_name_systematic 'Sodium carbonate - delta'
_chemical_formula_structural 'Na2 (C O3)'
_chemical_formula_sum 'C1 Na2 O3'
_chemical_name_structure_type Na2CO3(HT)
_exptl_crystal_density_diffrn 2.57
_cell_measurement_temperature 110.
_publ_section_title 'Sodium carbonate revisited'
loop_
_citation_id
_citation_journal_full
_citation_year
_citation_journal_volume
_citation_page_first
_citation_page_last
_citation_journal_id_ASTM
primary 'Acta Crystallographica, Section B: Structural Science' 2003 59 337 352
ASBSDK
loop_
_publ_author_name
'Dusek, M.'
'Chapuis, G.'
'Meyer, M.'
'Petricek, V.'
_cell_length_a 8.898(7)
_cell_length_b 5.237(5)
_cell_length_c 5.996(5)
_cell_angle_alpha 90.
_cell_angle_beta 101.87(8)
_cell_angle_gamma 90.
_cell_volume 273.43
_cell_formula_units_Z 4
_symmetry_space_group_name_H-M 'C 1 2/m 1'
_symmetry_Int_Tables_number 12
_refine_ls_R_factor_all 0.056
loop_
_symmetry_equiv_pos_site_id
_symmetry_equiv_pos_as_xyz
1 '-x, y, -z'
2 '-x, -y, -z'
3 'x, -y, z'
4 'x, y, z'
5 '-x+1/2, y+1/2, -z'
6 '-x+1/2, -y+1/2, -z'
7 'x+1/2, -y+1/2, z'
8 'x+1/2, y+1/2, z'
loop_
_atom_type_symbol
_atom_type_oxidation_number
Na1+ 1
C4+ 4
O2- -2
loop_
_atom_site_label
_atom_site_type_symbol
_atom_site_symmetry_multiplicity
_atom_site_Wyckoff_symbol
_atom_site_fract_x
_atom_site_fract_y
_atom_site_fract_z
_atom_site_B_iso_or_equiv
_atom_site_occupancy
_atom_site_attached_hydrogens
Na1 Na1+ 2 a 0 0 0 0.00886(10) 1. 0
Na2 Na1+ 2 c 0 0 0.5 0.00855(10) 1. 0
Na3 Na1+ 4 i 0.17125(4) 0.5 0.74784(6) 0.01267(8) 1. 0
C1 C4+ 4 i 0.16454(7) 0.5 0.24887(10) 0.00695(12) 1. 0
O1 O2- 8 j 0.10175(5) 0.29345(6) 0.28667(7) 0.01312(9) 1. 0
O2 O2- 4 i 0.28941(6) 0.5 0.17472(9) 0.01135(11) 1. 0
loop_
_atom_site_aniso_label
_atom_site_aniso_type_symbol
_atom_site_aniso_U_11
_atom_site_aniso_U_22
_atom_site_aniso_U_33
_atom_site_aniso_U_12
_atom_site_aniso_U_13
_atom_site_aniso_U_23
Na1 Na1+ 0.00927(18) 0.00910(12) 0.00885(17) 0 0.00338(15) 0
Na2 Na1+ 0.01018(18) 0.00779(11) 0.00831(17) 0 0.00332(15) 0
Na3 Na1+ 0.01204(15) 0.01238(10) 0.01448(16) 0 0.00482(13) 0
C1 C4+ 0.0071(2) 0.00690(14) 0.0072(2) 0 0.00232(19) 0
O1 O2- 0.01620(17) 0.00969(10) 0.01463(16) -0.00452(10) 0.00584(14) 0.00021(10)
O2 O2- 0.00874(19) 0.01506(15) 0.0115(2) 0 0.00509(17) 0
#End of TTdata_281361-ICSD