
#(C) 2019 by FIZ Karlsruhe - Leibniz Institute for Information Infrastructure.  All rights reserved.
data_281364-ICSD
_database_code_ICSD 281364
_audit_creation_date 2004-04-01
_chemical_name_systematic
'Sodium potassium oxotitanium phosphate(V) (0.11/1.89/2/2)'
_chemical_formula_structural '(Na0.114 K0.886) K (Ti O)2 (P O4)2'
_chemical_formula_sum 'K1.886 Na0.114 O10 P2 Ti2'
_chemical_name_structure_type TlSbOGeO4(Pna21)
_exptl_crystal_density_diffrn 3.02
_publ_section_title

;
Cation movement and phase transitions in KTP isostructures; X-ray study of
sodium-doped KTP at 10.5 K
;
loop_
_citation_id
_citation_journal_full
_citation_year
_citation_journal_volume
_citation_page_first
_citation_page_last
_citation_journal_id_ASTM
primary 'Acta Crystallographica, Section B: Structural Science' 2003 59 353 360
ASBSDK
loop_
_publ_author_name
'Norberg, S.T.'
'Sobolev, A.N.'
'Strel'tsov, V.A. (Streltsov, V.A.)'
_cell_length_a 12.806(1)
_cell_length_b 6.3889(6)
_cell_length_c 10.588(1)
_cell_angle_alpha 90.
_cell_angle_beta 90.
_cell_angle_gamma 90.
_cell_volume 866.27
_cell_formula_units_Z 4
_symmetry_space_group_name_H-M 'P n a 21'
_symmetry_Int_Tables_number 33
_refine_ls_R_factor_all 0.016
loop_
_symmetry_equiv_pos_site_id
_symmetry_equiv_pos_as_xyz
1 'x+1/2, -y+1/2, z'
2 '-x+1/2, y+1/2, z+1/2'
3 '-x, -y, z+1/2'
4 'x, y, z'
loop_
_atom_type_symbol
_atom_type_oxidation_number
K1+ 1
Na1+ 1
K1+ 1
Ti4+ 4
P5+ 5
O2- -2
loop_
_atom_site_label
_atom_site_type_symbol
_atom_site_symmetry_multiplicity
_atom_site_Wyckoff_symbol
_atom_site_fract_x
_atom_site_fract_y
_atom_site_fract_z
_atom_site_B_iso_or_equiv
_atom_site_occupancy
_atom_site_attached_hydrogens
K1 K1+ 4 a 0.37854(13) 0.21969(16) 0.3025(2) 0.0186(6) 0.886(3) 0
Na1 Na1+ 4 a 0.3478(14) 0.223(3) 0.284(2) 0.024(7) 0.114(3) 0
K2 K1+ 4 a 0.10443(6) 0.30340(12) 0.05659(14) 0.0210(4) 1. 0
Ti1 Ti4+ 4 a 0.37298(4) 0.50080(6) -.00944(15) 0.0053(3) 1. 0
Ti2 Ti4+ 4 a 0.24661(3) 0.73115(7) 0.24212(15) 0.0052(3) 1. 0
P1 P5+ 4 a 0.49783(4) 0.66329(11) 0.25090(15) 0.0059(4) 1. 0
P2 P5+ 4 a 0.18138(6) 0.49843(8) 0.50313(15) 0.0062(4) 1. 0
O1 O2- 4 a 0.4856(2) 0.5134(4) 0.1409(3) 0.0106(11) 1. 0
O2 O2- 4 a 0.50984(19) 0.5344(4) 0.3738(2) 0.0104(11) 1. 0
O3 O2- 4 a 0.40038(17) 0.8024(3) 0.2705(2) 0.0088(10) 1. 0
O4 O2- 4 a 0.59358(15) 0.8069(3) 0.2318(2) 0.0090(10) 1. 0
O5 O2- 4 a 0.2750(2) 0.5344(4) 0.1339(2) 0.0084(10) 1. 0
O6 O2- 4 a 0.2234(2) 0.9602(4) 0.3803(2) 0.0089(10) 1. 0
O7 O2- 4 a 0.11302(16) 0.6893(3) 0.5316(2) 0.0089(10) 1. 0
O8 O2- 4 a 0.11145(16) 0.3093(3) 0.4779(2) 0.0096(10) 1. 0
O9 O2- 4 a 0.25309(18) 0.4611(4) 0.6184(2) 0.0089(11) 1. 0
O10 O2- 4 a 0.25372(18) 0.5397(4) 0.390(2) 0.0088(12) 1. 0
loop_
_atom_site_aniso_label
_atom_site_aniso_type_symbol
_atom_site_aniso_U_11
_atom_site_aniso_U_22
_atom_site_aniso_U_33
_atom_site_aniso_U_12
_atom_site_aniso_U_13
_atom_site_aniso_U_23
K1 K1+ 0.0223(6) 0.0096(5) 0.0239(6) -0.0042(4) 0.0068(6) -0.0012(4)
K2 K1+ 0.0146(3) 0.0211(4) 0.0273(4) -0.0065(3) 0.0000(3) 0.0004(4)
Ti1 Ti4+ 0.0068(3) 0.0045(3) 0.0045(3) 0.00009(13) -0.0005(2) -0.00077(18)
Ti2 Ti4+ 0.0061(3) 0.0051(3) 0.0045(3) 0.00063(15) 0.00038(15) -0.0001(2)
P1 P5+ 0.0053(4) 0.0067(4) 0.0056(4) -0.0003(2) -0.0004(2) -0.0009(4)
P2 P5+ 0.0086(4) 0.0045(4) 0.0057(4) 0.0003(2) 0.0010(3) 0.0006(2)
O1 O2- 0.0092(12) 0.0120(11) 0.0105(10) 0.0035(7) -0.0027(9) -0.0040(9)
O2 O2- 0.0118(13) 0.0097(10) 0.0096(12) -0.0014(8) -0.0013(8) 0.0009(10)
O3 O2- 0.0069(9) 0.0084(10) 0.0110(11) -0.0011(6) 0.0001(8) 0.0002(8)
O4 O2- 0.0082(10) 0.009(1) 0.0099(9) 0.0001(6) 0.0010(9) 0.0011(8)
O5 O2- 0.010(1) 0.0072(9) 0.0079(9) -0.0006(9) 0.0016(9) -0.0001(8)
O6 O2- 0.0095(11) 0.0078(9) 0.0093(10) -0.0023(10) 0.0024(9) -0.0016(8)
O7 O2- 0.0118(10) 0.0051(10) 0.0098(12) 0.0014(8) 0.0027(8) -0.0012(8)
O8 O2- 0.0121(10) 0.0064(10) 0.0104(11) 0.0007(6) -0.0028(8) 0.0027(9)
O9 O2- 0.0118(12) 0.0086(11) 0.0064(11) -0.0031(7) -0.0011(7) 0.0028(9)
O10 O2- 0.0110(14) 0.0085(11) 0.0071(10) 0.0034(8) 0.0022(8) 0.0044(9)
#End of TTdata_281364-ICSD