
#(C) 2019 by FIZ Karlsruhe - Leibniz Institute for Information Infrastructure.  All rights reserved.
data_281347-ICSD
_database_code_ICSD 281347
_audit_creation_date 2004-04-01
_chemical_name_systematic 'Tetrapotassium disodium decavanadate decahydrate'
_chemical_formula_structural 'K4 Na2 (V10 O28) (H2 O)10'
_chemical_formula_sum 'H20 K4 Na2 O38 V10'
_chemical_name_structure_type K2NaV5O14(H2O)5
_exptl_crystal_density_diffrn 2.65
_cell_measurement_temperature 298.
_publ_section_title
'Potassium-sodium double salt of decavanadate, K4 Na2 (V10 O28) * 10(H2 O)'
loop_
_citation_id
_citation_journal_full
_citation_year
_citation_journal_volume
_citation_page_first
_citation_page_last
_citation_journal_id_ASTM
primary 'Acta Crystallographica, Section E: Structure Reports Online' 2003 59
i122 i124 ACSEBH
loop_
_publ_author_name
'Lee, U.'
'Joo, H.-C.'
_cell_length_a 8.620(1)
_cell_length_b 10.387(1)
_cell_length_c 11.017(2)
_cell_angle_alpha 69.22(1)
_cell_angle_beta 87.14(1)
_cell_angle_gamma 66.12(1)
_cell_volume 838.22
_cell_formula_units_Z 1
_symmetry_space_group_name_H-M 'P -1'
_symmetry_Int_Tables_number 2
_refine_ls_R_factor_all 0.034
loop_
_symmetry_equiv_pos_site_id
_symmetry_equiv_pos_as_xyz
1 '-x, -y, -z'
2 'x, y, z'
loop_
_atom_type_symbol
_atom_type_oxidation_number
V5+ 5
K1+ 1
Na1+ 1
O2- -2
H1+ 1
O2- -2
H1+ 1
O2- -2
H1+ 1
O2- -2
H1+ 1
O2- -2
H1+ 1
loop_
_atom_site_label
_atom_site_type_symbol
_atom_site_symmetry_multiplicity
_atom_site_Wyckoff_symbol
_atom_site_fract_x
_atom_site_fract_y
_atom_site_fract_z
_atom_site_B_iso_or_equiv
_atom_site_occupancy
_atom_site_attached_hydrogens
V1 V5+ 2 i 0.31082(6) 0.49974(5) 0.52005(5) 0.01449(12) 1. 0
V2 V5+ 2 i 0.47458(7) 0.20815(6) 0.76614(5) 0.01953(13) 1. 0
V3 V5+ 2 i 0.52954(6) 0.49445(6) 0.74540(5) 0.01700(12) 1. 0
V4 V5+ 2 i 0.82986(6) 0.21084(6) 0.72371(5) 0.01911(13) 1. 0
V5 V5+ 2 i 0.62322(6) 0.21477(6) 0.49938(5) 0.01716(12) 1. 0
K1 K1+ 2 i -.18488(10) 0.78857(9) 0.50573(9) 0.03254(18) 1. 0
K2 K1+ 2 i 0.26515(16) 0.81715(13) 0.92705(10) 0.0635(4) 1. 0
Na1 Na1+ 2 i -.07082(17) 0.66774(15) 0.86876(13) 0.0279(3) 1. 0
O1 O2- 2 i 0.4307(2) 0.6251(2) 0.39380(19) 0.0155(4) 1. 0
O2 O2- 2 i 0.3180(3) 0.6169(2) 0.6196(2) 0.0162(4) 1. 0
O3 O2- 2 i 0.3969(3) 0.3805(2) 0.4129(2) 0.0162(4) 1. 0
O4 O2- 2 i 0.1250(3) 0.6252(2) 0.4279(2) 0.0189(4) 1. 0
O5 O2- 2 i 0.2656(3) 0.3680(2) 0.6425(2) 0.0185(4) 1. 0
O6 O2- 2 i 0.7057(3) 0.1162(2) 0.8254(2) 0.0215(4) 1. 0
O7 O2- 2 i 0.4436(3) 0.3577(2) 0.8349(2) 0.0206(4) 1. 0
O8 O2- 2 i 0.7518(3) 0.3614(2) 0.7985(2) 0.0198(4) 1. 0
O9 O2- 2 i 0.5187(3) 0.1299(2) 0.6315(2) 0.0202(4) 1. 0
O10 O2- 2 i 0.8300(3) 0.1321(2) 0.5958(2) 0.0196(4) 1. 0
O11 O2- 2 i 0.3945(3) 0.1030(3) 0.8652(2) 0.0304(5) 1. 0
O12 O2- 2 i 0.4948(3) 0.5977(3) 0.8333(2) 0.0238(5) 1. 0
O13 O2- 2 i 1.0241(3) 0.1100(3) 0.7909(2) 0.0278(5) 1. 0
O14 O2- 2 i 0.6594(3) 0.1132(3) 0.4099(2) 0.0243(5) 1. 0
O15 O2- 2 i -.0300(3) 0.5184(3) 0.7436(3) 0.0383(7) 1. 0
H1 H1+ 2 i -.0939 0.4561 0.7682 0.057 1. 0
H2 H1+ 2 i 0.0894 0.4575 0.7409 0.057 1. 0
O16 O2- 2 i 0.0289(4) 0.8147(3) 0.7004(3) 0.0533(9) 1. 0
H3 H1+ 2 i 0.143 0.769 0.6753 0.08 1. 0
H4 H1+ 2 i -.014 0.9185 0.6561 0.08 1. 0
O17 O2- 2 i -.3404(4) 0.8173(3) 0.7436(3) 0.0453(8) 1. 0
H5 H1+ 2 i -.3906 0.9205 0.7412 0.068 1. 0
H6 H1+ 2 i -.4211 0.7712 0.768 0.068 1. 0
O18 O2- 2 i 0.2044(3) 0.4874(3) 0.9860(2) 0.0315(6) 1. 0
H7 H1+ 2 i 0.2574 0.5278 0.03 0.047 1. 0
H8 H1+ 2 i 0.2828 0.4382 0.9335 0.047 1. 0
O19 O2- 2 i -.0692(4) 0.8226(3) 0.9772(3) 0.0441(7) 1. 0
H9 H1+ 2 i -.0779 0.7799 0.0701 0.066 1. 0
H10 H1+ 2 i -.159 0.9241 0.9392 0.066 1. 0
loop_
_atom_site_aniso_label
_atom_site_aniso_type_symbol
_atom_site_aniso_U_11
_atom_site_aniso_U_22
_atom_site_aniso_U_33
_atom_site_aniso_U_12
_atom_site_aniso_U_13
_atom_site_aniso_U_23
V1 V5+ 0.0116(2) 0.0131(2) 0.0163(2) -0.00295(18) 0.00095(18) -0.00516(19)
V2 V5+ 0.0187(3) 0.0167(3) 0.0184(3) -0.0058(2) 0.00202(19) -0.0029(2)
V3 V5+ 0.0181(2) 0.0156(2) 0.0146(2) -0.00338(19) 0.00013(19) -0.00645(19)
V4 V5+ 0.0149(2) 0.0158(2) 0.0198(3) -0.00167(19) -0.00293(19) -0.0037(2)
V5 V5+ 0.0177(2) 0.0125(2) 0.0182(3) -0.00258(19) 0.00069(19) -0.0064(2)
K1 K1+ 0.0293(4) 0.0290(4) 0.0396(4) -0.0094(3) 0.0038(3) -0.0160(3)
K2 K1+ 0.0656(7) 0.0447(6) 0.0379(5) 0.0176(5) -0.0048(5) -0.0140(4)
Na1 Na1+ 0.0299(7) 0.0250(7) 0.0282(7) -0.0113(6) 0.0024(6) -0.0092(6)
O1 O2- 0.0137(9) 0.0141(9) 0.0154(10) -0.0031(8) 0.0008(8) -0.0047(8)
O2 O2- 0.0143(9) 0.0141(9) 0.0174(10) -0.0022(8) 0.0009(8) -0.0067(8)
O3 O2- 0.0142(9) 0.0156(10) 0.0181(10) -0.0049(8) 0.0009(8) -0.0068(8)
O4 O2- 0.0142(10) 0.0186(10) 0.0206(11) -0.0041(8) 0.0000(8) -0.0066(9)
O5 O2- 0.016(1) 0.0168(10) 0.0209(11) -0.0061(8) 0.0033(8) -0.0059(8)
O6 O2- 0.0204(11) 0.0173(10) 0.0195(11) -0.0041(9) -0.0010(8) -0.0025(9)
O7 O2- 0.0205(10) 0.0211(11) 0.0176(10) -0.0066(9) 0.0033(8) -0.0066(9)
O8 O2- 0.0181(10) 0.0195(10) 0.0179(10) -0.0045(9) -0.0018(8) -0.0059(9)
O9 O2- 0.0211(10) 0.0143(10) 0.0226(11) -0.0060(8) 0.0008(9) -0.0050(9)
O10 O2- 0.0173(10) 0.0123(9) 0.0233(11) -0.0010(8) -0.0001(8) -0.0056(8)
O11 O2- 0.0317(13) 0.0282(13) 0.0273(13) -0.0149(11) 0.005(1) -0.0029(10)
O12 O2- 0.0261(11) 0.0264(12) 0.0212(11) -0.0084(10) 0.0030(9) -0.0141(10)
O13 O2- 0.0193(11) 0.0241(12) 0.0304(13) -0.0013(9) -0.0067(9) -0.0071(10)
O14 O2- 0.0256(11) 0.0202(11) 0.0277(12) -0.0059(9) 0.0018(9) -0.0134(10)
O15 O2- 0.0287(13) 0.0449(16) 0.0592(19) -0.0189(12) 0.0165(13) -0.0365(15)
O16 O2- 0.0533(19) 0.0259(14) 0.068(2) -0.0113(13) 0.0395(17) -0.0129(14)
O17 O2- 0.0384(15) 0.0235(13) 0.067(2) -0.0088(12) -0.0164(14) -0.0103(13)
O18 O2- 0.0249(12) 0.0380(14) 0.0265(13) -0.0080(11) 0.0026(10) -0.0119(11)
O19 O2- 0.0582(19) 0.0288(14) 0.0295(14) -0.0021(13) -0.0096(13) -0.0098(12)
#End of TTdata_281347-ICSD