
#(C) 2019 by FIZ Karlsruhe - Leibniz Institute for Information Infrastructure.  All rights reserved.
data_281475-ICSD
_database_code_ICSD 281475
_audit_creation_date 2004-04-01
_audit_update_record 2010-08-01
_chemical_name_systematic 'Disodium dilanthanum platinate(IV)'
_chemical_formula_structural 'Na2 La2 (Pt O6)'
_chemical_formula_sum 'La2 Na2 O6 Pt1'
_chemical_name_structure_type NaLa2NaPtO6
_exptl_crystal_density_diffrn 6.83
_publ_section_title

;
(Na La2) Na Pt O6: the first 2H-perovskite related oxide with a rare earth
cation on the A-site
;
loop_
_citation_id
_citation_journal_full
_citation_year
_citation_journal_volume
_citation_page_first
_citation_page_last
_citation_journal_id_ASTM
primary 'Inorganic Chemistry' 2003 42 6980 6982 INOCAJ
loop_
_publ_author_name
'Davis, M.J.'
'Smith, M.D.'
'zur Loye, H.C.'
_cell_length_a 9.5031(2)
_cell_length_b 9.5031(2)
_cell_length_c 11.4625(5)
_cell_angle_alpha 90.
_cell_angle_beta 90.
_cell_angle_gamma 120.
_cell_volume 896.48
_cell_formula_units_Z 6
_symmetry_space_group_name_H-M 'R -3 c H'
_symmetry_Int_Tables_number 167
_refine_ls_R_factor_all 0.0234
loop_
_symmetry_equiv_pos_site_id
_symmetry_equiv_pos_as_xyz
1 'x-y, -y, -z+1/2'
2 '-x, -x+y, -z+1/2'
3 'y, x, -z+1/2'
4 'x-y, x, -z'
5 'y, -x+y, -z'
6 '-x, -y, -z'
7 '-x+y, y, z+1/2'
8 'x, x-y, z+1/2'
9 '-y, -x, z+1/2'
10 '-x+y, -x, z'
11 '-y, x-y, z'
12 'x, y, z'
13 'x-y+2/3, -y+1/3, -z+5/6'
14 '-x+2/3, -x+y+1/3, -z+5/6'
15 'y+2/3, x+1/3, -z+5/6'
16 'x-y+2/3, x+1/3, -z+1/3'
17 'y+2/3, -x+y+1/3, -z+1/3'
18 '-x+2/3, -y+1/3, -z+1/3'
19 '-x+y+2/3, y+1/3, z+5/6'
20 'x+2/3, x-y+1/3, z+5/6'
21 '-y+2/3, -x+1/3, z+5/6'
22 '-x+y+2/3, -x+1/3, z+1/3'
23 '-y+2/3, x-y+1/3, z+1/3'
24 'x+2/3, y+1/3, z+1/3'
25 'x-y+1/3, -y+2/3, -z+1/6'
26 '-x+1/3, -x+y+2/3, -z+1/6'
27 'y+1/3, x+2/3, -z+1/6'
28 'x-y+1/3, x+2/3, -z+2/3'
29 'y+1/3, -x+y+2/3, -z+2/3'
30 '-x+1/3, -y+2/3, -z+2/3'
31 '-x+y+1/3, y+2/3, z+1/6'
32 'x+1/3, x-y+2/3, z+1/6'
33 '-y+1/3, -x+2/3, z+1/6'
34 '-x+y+1/3, -x+2/3, z+2/3'
35 '-y+1/3, x-y+2/3, z+2/3'
36 'x+1/3, y+2/3, z+2/3'
loop_
_atom_type_symbol
_atom_type_oxidation_number
Pt4+ 4
La3+ 3
Na1+ 1
O2- -2
loop_
_atom_site_label
_atom_site_type_symbol
_atom_site_symmetry_multiplicity
_atom_site_Wyckoff_symbol
_atom_site_fract_x
_atom_site_fract_y
_atom_site_fract_z
_atom_site_B_iso_or_equiv
_atom_site_occupancy
_atom_site_attached_hydrogens
Pt1 Pt4+ 6 b 0 0 0 0.00501(12) 1. 0
La1 La3+ 18 e 0 0.3612(4) 0.25 0.00970(16) 0.677(4) 0
Na1 Na1+ 18 e 0 0.364(6) 0.25 0.00970(16) 0.323(4) 0
Na2 Na1+ 6 a 0 0 0.25 0.0113(9) 1. 0
O1 O2- 36 f 0.1863(5) 0.0255(5) 0.1025(3) 0.0126(7) 1. 0
loop_
_atom_site_aniso_label
_atom_site_aniso_type_symbol
_atom_site_aniso_U_11
_atom_site_aniso_U_22
_atom_site_aniso_U_33
_atom_site_aniso_U_12
_atom_site_aniso_U_13
_atom_site_aniso_U_23
Pt1 Pt4+ 0.00472(14) 0.00472(14) 0.00558(18) 0.00236(7) 0 0
La1 La3+ 0.0084(3) 0.0112(3) 0.0085(2) 0.00422(13) 0.00039(18) 0.00019(9)
Na1 Na1+ 0.0084(3) 0.0112(3) 0.0085(2) 0.00422(13) 0.00039(18) 0.00019(9)
Na2 Na1+ 0.0126(15) 0.0126(15) 0.009(2) 0.0063(7) 0 0
O1 O2- 0.0107(17) 0.0182(19) 0.0103(15) 0.0083(15) -0.0025(13) 0.0008(13)
#End of TTdata_281475-ICSD