
#(C) 2019 by FIZ Karlsruhe - Leibniz Institute for Information Infrastructure.  All rights reserved.
data_281577-ICSD
_database_code_ICSD 281577
_audit_creation_date 2004-10-01
_chemical_name_systematic 'Sodium trirubidium tetrakis(vanadate) hydrate'
_chemical_formula_structural 'Na Rb3 (V O3)4 (H2 O)'
_chemical_formula_sum 'H2 Na1 O13 Rb3 V4'
_exptl_crystal_density_diffrn 3.14
_cell_measurement_temperature 150.
_publ_section_title 'Sodium trirubidium metavanadate monohydrate'
loop_
_citation_id
_citation_journal_full
_citation_year
_citation_journal_volume
_citation_page_first
_citation_page_last
_citation_journal_id_ASTM
primary 'Acta Crystallographica, Section E: Structure Reports Online' 2003 59
i151 i153 ACSEBH
loop_
_publ_author_name
'Bostroem, D.'
'Bergquist, G.'
'Pettersson, L.'
_cell_length_a 11.1610(5)
_cell_length_b 8.3050(11)
_cell_length_c 15.8180(8)
_cell_angle_alpha 90.
_cell_angle_beta 90.
_cell_angle_gamma 90.
_cell_volume 1466.2
_cell_formula_units_Z 4
_symmetry_space_group_name_H-M 'P n m a'
_symmetry_Int_Tables_number 62
_refine_ls_R_factor_all 0.034
loop_
_symmetry_equiv_pos_site_id
_symmetry_equiv_pos_as_xyz
1 'x+1/2, y, -z+1/2'
2 'x, -y+1/2, z'
3 '-x+1/2, y+1/2, z+1/2'
4 '-x, -y, -z'
5 '-x+1/2, -y, z+1/2'
6 '-x, y+1/2, -z'
7 'x+1/2, -y+1/2, -z+1/2'
8 'x, y, z'
loop_
_atom_type_symbol
_atom_type_oxidation_number
Rb1+ 1
V5+ 5
Na1+ 1
O2- -2
H1+ 1
loop_
_atom_site_label
_atom_site_type_symbol
_atom_site_symmetry_multiplicity
_atom_site_Wyckoff_symbol
_atom_site_fract_x
_atom_site_fract_y
_atom_site_fract_z
_atom_site_B_iso_or_equiv
_atom_site_occupancy
_atom_site_attached_hydrogens
Rb1 Rb1+ 4 c 0.52769(4) 0.75 0.89948(3) 0.02539(14) 1. 0
Rb2 Rb1+ 4 c 0.48559(4) 0.75 0.62101(3) 0.01808(12) 1. 0
Rb3 Rb1+ 4 c 0.48232(5) 0.25 0.69433(4) 0.02690(14) 1. 0
V1 V5+ 8 d 0.71486(4) 0.45993(6) 0.52643(3) 0.01183(13) 1. 0
V2 V5+ 8 d 0.74207(5) 0.54938(7) 0.73235(3) 0.01450(14) 1. 0
Na1 Na1+ 4 c 0.68488(18) 0.25 0.91556(11) 0.0189(4) 1. 0
O1 O2- 8 d 0.8537(2) 0.5234(3) 0.51424(14) 0.0216(5) 1. 0
O2 O2- 4 c 0.7038(3) -.75 0.4986(2) 0.0218(7) 1. 0
O3 O2- 8 d 0.6281(2) 0.5647(3) 0.46424(15) 0.0218(5) 1. 0
O4 O2- 8 d 0.6691(2) 0.4897(3) 0.63472(13) 0.0203(5) 1. 0
O5 O2- 8 d 0.8889(2) 0.5460(3) 0.72709(16) 0.0260(6) 1. 0
O6 O2- 4 c 0.6904(3) 0.75 0.7572(2) 0.0227(7) 1. 0
O7 O2- 8 d 0.6958(3) 0.4309(4) 0.80725(17) 0.0349(7) 1. 0
O8 O2- 4 c 0.4771(3) 0.25 0.8920(2) 0.0251(8) 1. 0
H1 H1+ 8 d 0.4333 0.3413 0.9146 0.03 1. 0
loop_
_atom_site_aniso_label
_atom_site_aniso_type_symbol
_atom_site_aniso_U_11
_atom_site_aniso_U_22
_atom_site_aniso_U_33
_atom_site_aniso_U_12
_atom_site_aniso_U_13
_atom_site_aniso_U_23
Rb1 Rb1+ 0.0199(2) 0.0300(3) 0.0263(3) 0 0.00265(17) 0
Rb2 Rb1+ 0.0153(2) 0.0185(2) 0.0205(2) 0 -.00518(15) 0
Rb3 Rb1+ 0.0239(3) 0.0157(2) 0.0411(3) 0 0.00626(19) 0
V1 V5+ 0.0129(2) 0.0109(3) 0.0117(2) -.00049(17) 0.00012(17) 0.00071(18)
V2 V5+ 0.0165(3) 0.0146(3) 0.0124(2) -.00063(19) -.00209(18) 0.00365(19)
Na1 Na1+ 0.026(1) 0.0164(9) 0.0143(8) 0 0.0009(7) 0
O1 O2- 0.0162(11) 0.0292(13) 0.0194(11) -.0075(10) 0.0018(8) -.0008(10)
O2 O2- 0.0298(18) 0.0129(16) 0.0226(17) 0 -.0080(14) 0
O3 O2- 0.0254(12) 0.0211(12) 0.0190(11) 0.0049(10) -.0029(9) 0.0041(9)
O4 O2- 0.0165(11) 0.0310(14) 0.0134(10) -.0005(9) 0.0005(8) -.0022(10)
O5 O2- 0.0187(12) 0.0296(14) 0.0298(13) 0.0043(10) -.0049(10) 0.0028(11)
O6 O2- 0.0213(17) 0.0166(16) 0.0302(18) 0 0.0033(14) 0
O7 O2- 0.0488(18) 0.0349(16) 0.0211(13) -.0178(14) -.0072(12) 0.0135(12)
O8 O2- 0.0216(18) 0.025(2) 0.0287(19) 0 0.0025(14) 0
#End of TTdata_281577-ICSD