
#(C) 2019 by FIZ Karlsruhe - Leibniz Institute for Information Infrastructure.  All rights reserved.
data_281593-ICSD
_database_code_ICSD 281593
_audit_creation_date 2004-10-01
_chemical_name_systematic 'Trisodium trithiooxovanadate'
_chemical_formula_structural 'Na3 (V O S3)'
_chemical_formula_sum 'Na3 O1 S3 V1'
_chemical_name_structure_type Na3POS3
_exptl_crystal_density_diffrn 2.27
_cell_measurement_temperature 153.
_publ_section_title 'Na3 V O S3'
loop_
_citation_id
_citation_journal_full
_citation_year
_citation_journal_volume
_citation_page_first
_citation_page_last
_citation_journal_id_ASTM
primary 'Acta Crystallographica, Section E: Structure Reports Online' 2004 60 i6
i7 ACSEBH
loop_
_publ_author_name
'Huang Fu qiang'
'Ibers, J.A.'
_cell_length_a 9.6673(11)
_cell_length_b 11.9122(14)
_cell_length_c 5.8846(7)
_cell_angle_alpha 90.
_cell_angle_beta 90.
_cell_angle_gamma 90.
_cell_volume 677.66
_cell_formula_units_Z 4
_symmetry_space_group_name_H-M 'C m c 21'
_symmetry_Int_Tables_number 36
_refine_ls_R_factor_all 0.017
loop_
_symmetry_equiv_pos_site_id
_symmetry_equiv_pos_as_xyz
1 'x, -y, z+1/2'
2 '-x, -y, z+1/2'
3 '-x, y, z'
4 'x, y, z'
5 'x+1/2, -y+1/2, z+1/2'
6 '-x+1/2, -y+1/2, z+1/2'
7 '-x+1/2, y+1/2, z'
8 'x+1/2, y+1/2, z'
loop_
_atom_type_symbol
_atom_type_oxidation_number
Na1+ 1
V5+ 5
S2- -2
O2- -2
loop_
_atom_site_label
_atom_site_type_symbol
_atom_site_symmetry_multiplicity
_atom_site_Wyckoff_symbol
_atom_site_fract_x
_atom_site_fract_y
_atom_site_fract_z
_atom_site_B_iso_or_equiv
_atom_site_occupancy
_atom_site_attached_hydrogens
Na1 Na1+ 4 a 0 0.88164(8) 0 0.0152(2) 1. 0
Na2 Na1+ 8 b 0.79336(7) 0.61995(5) 0.98035(19) 0.01556(15) 1. 0
V1 V5+ 4 a 0 0.70360(2) 0.5789(2) 0.00851(10) 1. 0
S1 S2- 4 a 0 0.88180(4) 0.48267(19) 0.01130(12) 1. 0
S2 S2- 8 b 0.68988(4) 0.87609(3) 0.9639(2) 0.01272(11) 1. 0
O1 O2- 4 a 0 0.69877(12) 0.8630(4) 0.0112(3) 1. 0
loop_
_atom_site_aniso_label
_atom_site_aniso_type_symbol
_atom_site_aniso_U_11
_atom_site_aniso_U_22
_atom_site_aniso_U_33
_atom_site_aniso_U_12
_atom_site_aniso_U_13
_atom_site_aniso_U_23
Na1 Na1+ 0.0194(5) 0.0116(4) 0.0146(5) 0 0 -.0023(3)
Na2 Na1+ 0.0133(3) 0.0185(3) 0.0149(3) -.0016(2) 0.0021(3) 0.0004(3)
V1 V5+ 0.00835(15) 0.00893(17) 0.00826(17) 0 0 0.00038(13)
S1 S2- 0.0106(2) 0.0093(2) 0.0140(2) 0 0 0.00230(18)
S2 S2- 0.01136(19) 0.01397(19) 0.0128(2) -.00304(11) 0.00159(14) 0.00061(12)
O1 O2- 0.0110(7) 0.0142(9) 0.0085(8) 0 0 0.0011(5)
#End of TTdata_281593-ICSD