
#(C) 2019 by FIZ Karlsruhe - Leibniz Institute for Information Infrastructure.  All rights reserved.
data_281622-ICSD
_database_code_ICSD 281622
_audit_creation_date 2004-10-01
_chemical_name_systematic 'Sodium dioxalatoborate'
_chemical_formula_structural 'Na (B (C2 O4)2)'
_chemical_formula_sum 'C4 B1 Na1 O8'
_chemical_name_structure_type KB(C2O4)2
_exptl_crystal_density_diffrn 2.12
_cell_measurement_temperature 295.
_publ_section_title

;
Structures of potassium, sodium and lithium bis(oxalato)borate salts from
powder diffraction data
;
loop_
_citation_id
_citation_journal_full
_citation_year
_citation_journal_volume
_citation_page_first
_citation_page_last
_citation_journal_id_ASTM
primary 'Acta Crystallographica, Section B: Structural Science' 2003 59 753 759
ASBSDK
loop_
_publ_author_name
'Zavalii, P.Yu.'
'Yang Shoufeng'
'Whittingham, M.S.'
_cell_length_a 8.12756(8)
_cell_length_b 10.3399(2)
_cell_length_c 7.82108(10)
_cell_angle_alpha 90.
_cell_angle_beta 90.
_cell_angle_gamma 90.
_cell_volume 657.27
_cell_formula_units_Z 4
_symmetry_space_group_name_H-M 'C m c m'
_symmetry_Int_Tables_number 63
_refine_ls_R_factor_all 0.031
loop_
_symmetry_equiv_pos_site_id
_symmetry_equiv_pos_as_xyz
1 '-x, y, -z+1/2'
2 '-x, -y, z+1/2'
3 '-x, y, z'
4 '-x, -y, -z'
5 'x, -y, z+1/2'
6 'x, y, -z+1/2'
7 'x, -y, -z'
8 'x, y, z'
9 '-x+1/2, y+1/2, -z+1/2'
10 '-x+1/2, -y+1/2, z+1/2'
11 '-x+1/2, y+1/2, z'
12 '-x+1/2, -y+1/2, -z'
13 'x+1/2, -y+1/2, z+1/2'
14 'x+1/2, y+1/2, -z+1/2'
15 'x+1/2, -y+1/2, -z'
16 'x+1/2, y+1/2, z'
loop_
_atom_type_symbol
_atom_type_oxidation_number
Na1+ 1
B3+ 3
C3+ 3
O2- -2
C3+ 3
O2- -2
loop_
_atom_site_label
_atom_site_type_symbol
_atom_site_symmetry_multiplicity
_atom_site_Wyckoff_symbol
_atom_site_fract_x
_atom_site_fract_y
_atom_site_fract_z
_atom_site_B_iso_or_equiv
_atom_site_occupancy
_atom_site_attached_hydrogens
Na1 Na1+ 4 c 0 0.9318(3) 0.75 0.0461(9) 1. 0
B1 B3+ 4 c 0 0.4273(6) 0.75 0.025(3) 1. 0
C1 C3+ 8 f 0 0.2220(3) 0.6516(3) 0.0202(16) 1. 0
O1 O2- 8 f 0 0.1269(2) 0.5642(3) 0.0272(11) 1. 0
O2 O2- 8 f 0 0.3440(2) 0.5993(3) 0.0204(10) 1. 0
C2 C3+ 8 g 0.0949(3) 0.6388(3) 0.75 0.0259(18) 1. 0
O3 O2- 8 g 0.1440(3) 0.5173(2) 0.75 0.0247(11) 1. 0
O4 O2- 8 g 0.1756(3) 0.7345(2) 0.75 0.0291(10) 1. 0
#End of TTdata_281622-ICSD