
#(C) 2019 by FIZ Karlsruhe - Leibniz Institute for Information Infrastructure.  All rights reserved.
data_281613-ICSD
_database_code_ICSD 281613
_audit_creation_date 2004-10-01
_chemical_name_systematic 'Sodium titanium(III) disilicate'
_chemical_formula_structural 'Na Ti (Si2 O6)'
_chemical_formula_sum 'Na1 O6 Si2 Ti1'
_chemical_name_structure_type NaTiSi2O6
_chemical_name_mineral Clinopyroxene
_exptl_crystal_density_diffrn 3.4
_cell_measurement_temperature 160.
_publ_section_title

;
Single-crystal structure refinement of Na Ti Si2 O6 clinopyroxene at low
temperatures (298 > T > 100 K)
;
loop_
_citation_id
_citation_journal_full
_citation_year
_citation_journal_volume
_citation_page_first
_citation_page_last
_citation_journal_id_ASTM
primary 'Acta Crystallographica, Section B: Structural Science' 2003 59 730 746
ASBSDK
loop_
_publ_author_name
'Redhammer, G.J.'
'Ohashi, H.'
'Roth, G.'
_cell_length_a 5.2993(16)
_cell_length_b 6.5396(19)
_cell_length_c 6.600(2)
_cell_angle_alpha 84.70(2)
_cell_angle_beta 77.70(2)
_cell_angle_gamma 77.75(2)
_cell_volume 218.12
_cell_formula_units_Z 2
_symmetry_space_group_name_H-M 'P -1'
_symmetry_Int_Tables_number 2
_refine_ls_R_factor_all 0.0256
loop_
_symmetry_equiv_pos_site_id
_symmetry_equiv_pos_as_xyz
1 '-x, -y, -z'
2 'x, y, z'
loop_
_atom_type_symbol
_atom_type_oxidation_number
Na1+ 1
Ti3+ 3
Si4+ 4
O2- -2
loop_
_atom_site_label
_atom_site_type_symbol
_atom_site_symmetry_multiplicity
_atom_site_Wyckoff_symbol
_atom_site_fract_x
_atom_site_fract_y
_atom_site_fract_z
_atom_site_B_iso_or_equiv
_atom_site_occupancy
_atom_site_attached_hydrogens
Na1 Na1+ 2 i 0.7579(6) 0.8034(4) 0.6992(4) 0.0075(3) 1. 0
Ti1 Ti3+ 2 i 0.2571(2) 0.59790(17) 0.90436(18) 0.00119(13) 1. 0
Si1 Si4+ 2 i 0.7417(3) 0.3002(2) 0.6149(2) 0.0014(3) 1. 0
Si2 Si4+ 2 i 1.2409(3) 0.1223(2) 0.7951(3) 0.0010(3) 1. 0
O1 O2- 2 i 0.8053(6) 0.3932(6) 0.3832(6) 0.0038(8) 1. 0
O2 O2- 2 i 0.6455(6) 0.4644(6) 0.8000(6) 0.0025(7) 1. 0
O3 O2- 2 i 0.5181(7) 0.1547(6) 0.6409(7) 0.0027(7) 1. 0
O4 O2- 2 i 1.0128(7) 0.1391(7) 0.6579(7) 0.0038(7) 1. 0
O5 O2- 2 i 1.1481(6) 0.3055(6) 0.9607(6) 0.0027(7) 1. 0
O6 O2- 2 i 1.3031(7) -.1125(6) 0.8932(7) 0.0036(8) 1. 0
loop_
_atom_site_aniso_label
_atom_site_aniso_type_symbol
_atom_site_aniso_U_11
_atom_site_aniso_U_22
_atom_site_aniso_U_33
_atom_site_aniso_U_12
_atom_site_aniso_U_13
_atom_site_aniso_U_23
Na1 Na1+ 0.0059(6) 0.0047(12) 0.0098(14) 0.0022(8) -.0008(8) 0.0011(5)
#End of TTdata_281613-ICSD