
#(C) 2019 by FIZ Karlsruhe - Leibniz Institute for Information Infrastructure.  All rights reserved.
data_281617-ICSD
_database_code_ICSD 281617
_audit_creation_date 2004-10-01
_audit_update_record 2013-02-01
_chemical_name_systematic 'Sodium titanium(III) disilicate'
_chemical_formula_structural 'Na Ti (Si2 O6)'
_chemical_formula_sum 'Na1 O6 Si2 Ti1'
_chemical_name_structure_type NaTiSi2O6
_chemical_name_mineral Clinopyroxene
_exptl_crystal_density_diffrn 3.4
_cell_measurement_temperature 110.
_publ_section_title

;
Single-crystal structure refinement of Na Ti Si2 O6 clinopyroxene at low
temperatures (298 > T > 100 K)
;
loop_
_citation_id
_citation_journal_full
_citation_year
_citation_journal_volume
_citation_page_first
_citation_page_last
_citation_journal_id_ASTM
primary 'Acta Crystallographica, Section B: Structural Science' 2003 59 730 746
ASBSDK
loop_
_publ_author_name
'Redhammer, G.J.'
'Ohashi, H.'
'Roth, G.'
_cell_length_a 5.2976(19)
_cell_length_b 6.516(2)
_cell_length_c 6.612(2)
_cell_angle_alpha 84.60(3)
_cell_angle_beta 77.73(3)
_cell_angle_gamma 77.75(3)
_cell_volume 217.66
_cell_formula_units_Z 2
_symmetry_space_group_name_H-M 'P -1'
_symmetry_Int_Tables_number 2
_refine_ls_R_factor_all 0.0259
loop_
_symmetry_equiv_pos_site_id
_symmetry_equiv_pos_as_xyz
1 '-x, -y, -z'
2 'x, y, z'
loop_
_atom_type_symbol
_atom_type_oxidation_number
Na1+ 1
Ti3+ 3
Si4+ 4
O2- -2
loop_
_atom_site_label
_atom_site_type_symbol
_atom_site_symmetry_multiplicity
_atom_site_Wyckoff_symbol
_atom_site_fract_x
_atom_site_fract_y
_atom_site_fract_z
_atom_site_B_iso_or_equiv
_atom_site_occupancy
_atom_site_attached_hydrogens
Na1 Na1+ 2 i 0.7578(6) 0.8046(4) 0.7005(5) 0.0060(4) 1. 0
Ti1 Ti3+ 2 i 0.2584(3) 0.59776(19) 0.9050(2) 0.00103(17) 1. 0
Si1 Si4+ 2 i 0.7421(3) 0.3008(3) 0.6145(3) 0.0010(3) 1. 0
Si2 Si4+ 2 i 0.2411(3) 0.1223(3) 0.7948(3) 0.0010(3) 1. 0
O1 O2- 2 i 0.8059(7) 0.3939(7) 0.3832(7) 0.0030(9) 1. 0
O2 O2- 2 i 0.6456(7) 0.4653(7) 0.7998(7) 0.0025(8) 1. 0
O3 O2- 2 i 0.5180(7) 0.1552(7) 0.6404(7) 0.0013(8) 1. 0
O4 O2- 2 i 0.0133(7) 0.1397(8) 0.6573(8) 0.0039(9) 1. 0
O5 O2- 2 i 0.1485(7) 0.3055(7) 0.9604(7) 0.0026(8) 1. 0
O6 O2- 2 i 0.3025(7) -.1130(7) 0.8929(8) 0.0033(9) 1. 0
loop_
_atom_site_aniso_label
_atom_site_aniso_type_symbol
_atom_site_aniso_U_11
_atom_site_aniso_U_22
_atom_site_aniso_U_33
_atom_site_aniso_U_12
_atom_site_aniso_U_13
_atom_site_aniso_U_23
Na1 Na1+ 0.0041(6) 0.0029(15) 0.0098(16) 0.0025(9) -.0018(10) -.0003(6)
#End of TTdata_281617-ICSD