
#(C) 2019 by FIZ Karlsruhe - Leibniz Institute for Information Infrastructure.  All rights reserved.
data_2822-ICSD
_database_code_ICSD 2822
_audit_creation_date 1980-01-01
_audit_update_record 2012-08-01
_chemical_name_systematic 'Disodium copper tetrakis(catena-phosphate(V))'
_chemical_formula_structural 'Na2 Cu (P O3)4'
_chemical_formula_sum 'Cu1 Na2 O12 P4'
_exptl_crystal_density_diffrn 2.94
_publ_section_title
'Structure cristalline du polyphosphate de cuivresodium, Cu Na2 (P O3)4'
loop_
_citation_id
_citation_journal_full
_citation_year
_citation_journal_volume
_citation_page_first
_citation_page_last
_citation_journal_id_ASTM
primary

;
Acta Crystallographica, Section B: Structural Crystallography and Crystal
Chemistry
; 1972 28 2721 2725 ACBCAR
loop_
_publ_author_name
'Laugt, M.'
'Tordjman, I.'
'Guitel, J.C.'
'Bassi, G.'
_cell_length_a 9.398(2)
_cell_length_b 13.304(5)
_cell_length_c 7.717(2)
_cell_angle_alpha 90.
_cell_angle_beta 95.62(5)
_cell_angle_gamma 90.
_cell_volume 960.23
_cell_formula_units_Z 4
_symmetry_space_group_name_H-M 'C 1 2/c 1'
_symmetry_Int_Tables_number 15
_refine_ls_R_factor_all 0.042
loop_
_symmetry_equiv_pos_site_id
_symmetry_equiv_pos_as_xyz
1 'x, -y, z+1/2'
2 '-x, -y, -z'
3 '-x, y, -z+1/2'
4 'x, y, z'
5 'x+1/2, -y+1/2, z+1/2'
6 '-x+1/2, -y+1/2, -z'
7 '-x+1/2, y+1/2, -z+1/2'
8 'x+1/2, y+1/2, z'
loop_
_atom_type_symbol
_atom_type_oxidation_number
Cu2+ 2
Na1+ 1
P5+ 5
O2- -2
loop_
_atom_site_label
_atom_site_type_symbol
_atom_site_symmetry_multiplicity
_atom_site_Wyckoff_symbol
_atom_site_fract_x
_atom_site_fract_y
_atom_site_fract_z
_atom_site_B_iso_or_equiv
_atom_site_occupancy
_atom_site_attached_hydrogens
Cu1 Cu2+ 4 e 0 0.86272(14) 0.25 . 1. 0
Na1 Na1+ 8 f 0.3282(4) 0.1442(4) 0.8062(6) . 1. 0
P1 P5+ 8 f 0.3631(2) 0.5738(2) 0.3255(3) . 1. 0
P2 P5+ 8 f 0.1050(2) 0.6552(2) 0.1244(3) . 1. 0
O1 O2- 4 e 0.5 0.6205(6) 0.25 . 1. 0
O2 O2- 4 e 0 0.6055 0.25 . 1. 0
O3 O2- 8 f 0.2451(7) 0.5903(5) 0.1653(8) . 1. 0
O4 O2- 8 f 0.3300(7) 0.6342(7) 0.4765(9) . 1. 0
O5 O2- 8 f 0.3800(7) 0.4630(5) 0.3427(10) . 1. 0
O6 O2- 8 f 0.1344(8) 0.7614(5) 0.1844(10) . 1. 0
O7 O2- 8 f 0.0519(7) 0.6365(6) -.0563(9) . 1. 0
loop_
_atom_site_aniso_label
_atom_site_aniso_type_symbol
_atom_site_aniso_beta_11
_atom_site_aniso_beta_22
_atom_site_aniso_beta_33
_atom_site_aniso_beta_12
_atom_site_aniso_beta_13
_atom_site_aniso_beta_23
Cu1 Cu2+ 0.00220(21) 0.00091(10) 0.00727(36) 0 0.00172(19) 0
Na1 Na1+ 0.00291(38) 0.00615(33) 0.00688(70) -.00021(32) 0.00018(41) 0.00238(45)
P1 P5+ 0.00216(21) 0.00128(13) 0.00305(35) 0.0005(13) 0.00045(19) -.00008(16)
P2 P5+ 0.00243(23) 0.00111(13) 0.00346(36) 0.00028(12) 0.00043(21) 0.00013(15)
O1 O2- 0.0035(10) 0.00008(47) 0.0108(20) 0 0.0020(12) 0
O2 O2- 0.0046(11) 0.00210(56) 0.0077(18) 0 0.0044(11) 0
O3 O2- 0.00251(63) 0.00330(41) 0.00294(96) 0.00247(41) -.00108(58) -.00106(53)
O4 O2- 0.00484(74) 0.00275(37) 0.0063(12) 0.00097(49) 0.00065(67) -.00147(57)
O5 O2- 0.00283(77) 0.00135(35) 0.0084(13) 0.00027(36) 0.00229(79) 0.00075(48)
O6 O2- 0.00538(76) 0.00133(33) 0.0057(12) -.00019(44) 0.00150(74) 0.00029(53)
O7 O2- 0.00450(68) 0.00285(33) 0.0043(10) -.00028(53) 0.00048(67) -.00102(57)
#End of TTdata_2822-ICSD