
#(C) 2019 by FIZ Karlsruhe - Leibniz Institute for Information Infrastructure.  All rights reserved.
data_28259-ICSD
_database_code_ICSD 28259
_audit_creation_date 1980-01-01
_audit_update_record 1998-06-29
_chemical_name_systematic 'Sodium hydrogensulfate hydrate'
_chemical_formula_structural 'Na (H S O4) (H2 O)'
_chemical_formula_sum 'H3 Na1 O5 S1'
_chemical_name_structure_type H3ONaSO4
_chemical_name_mineral Matteuccite
_exptl_crystal_density_diffrn 2.11
_publ_section_title

;
Hydrogen Bonding in the Crystalline State. Na H S O4 H2 O (Matteuccite), a
Pseudo-Symmetric Crystal Structure
;
loop_
_citation_id
_citation_journal_full
_citation_year
_citation_journal_volume
_citation_page_first
_citation_page_last
_citation_journal_id_ASTM
primary

;
Atti della Accademia delle Scienze di Torino, Classe di Scienze Fisiche,
Matematiche e Naturali
; 1975 109 531 545 AATFAA
loop_
_publ_author_name
'Catti, M.'
'Ferraris, G.'
'Franchini Angela, M.'
_cell_length_a 7.811(3)
_cell_length_b 7.823(3)
_cell_length_c 8.025(2)
_cell_angle_alpha 90.
_cell_angle_beta 117.49(2)
_cell_angle_gamma 90.
_cell_volume 435.
_cell_formula_units_Z 4
_symmetry_space_group_name_H-M 'C 1 c 1'
_symmetry_Int_Tables_number 9
_refine_ls_R_factor_all 0.027
loop_
_symmetry_equiv_pos_site_id
_symmetry_equiv_pos_as_xyz
1 'x, -y, z+1/2'
2 'x, y, z'
3 'x+1/2, -y+1/2, z+1/2'
4 'x+1/2, y+1/2, z'
loop_
_atom_type_symbol
_atom_type_oxidation_number
Na1+ 1
S6+ 6
O2- -2
H1+ 1
loop_
_atom_site_label
_atom_site_type_symbol
_atom_site_symmetry_multiplicity
_atom_site_Wyckoff_symbol
_atom_site_fract_x
_atom_site_fract_y
_atom_site_fract_z
_atom_site_B_iso_or_equiv
_atom_site_occupancy
_atom_site_attached_hydrogens
Na1 Na1+ 4 a 0.4831(2) 0.0275(2) 0.4995(2) . 1. 0
S1 S6+ 4 a 0 0.12099(8) 0.75 . 1. 0
O1 O2- 4 a -.1748(4) 0.0353(3) 0.5770(4) . 1. 0
O2 O2- 4 a 0.1423(3) -.0119(3) 0.8382(4) . 1. 0
O3 O2- 4 a -.0887(4) 0.1784(3) 0.8651(4) . 1. 0
O4 O2- 4 a 0.0696(4) 0.2606(3) 0.6795(4) . 1. 0
O5 O2- 4 a 0.4591(4) 0.1580(3) 0.7521(4) . 1. 0
H1 H1+ 4 a 0.344(10) 0.198(9) 0.726(10) 2.1 1. 0
H2 H1+ 4 a 0.511(8) 0.250(8) 0.812(8) 1.3 1. 0
H3 H1+ 4 a -.139(10) -.021(9) 0.509(10) 1.7 1. 0
loop_
_atom_site_aniso_label
_atom_site_aniso_type_symbol
_atom_site_aniso_B_11
_atom_site_aniso_B_22
_atom_site_aniso_B_33
_atom_site_aniso_B_12
_atom_site_aniso_B_13
_atom_site_aniso_B_23
Na1 Na1+ 1.38(5) 1.60(5) 1.54(4) 0.13(4) 0.52(4) -.09(4)
S1 S6+ 0.975(19) 0.913(20) 1.014(18) 0.065(20) 0.377(14) 0.089(18)
O1 O2- 1.25(7) 2.36(9) 1.63(8) -.05(7) 0.31(6) 0.50(8)
O2 O2- 1.27(7) 1.33(8) 2.35(10) 0.34(6) 0.26(7) 0.37(7)
O3 O2- 2.59(10) 1.93(9) 1.87(8) 0.30(8) 1.46(8) -.11(7)
O4 O2- 2.29(9) 1.58(8) 2.38(9) -.29(7) 1.11(8) 0.54(7)
O5 O2- 1.75(9) 1.56(9) 1.69(8) -.14(6) 0.77(7) -.07(7)
#End of TTdata_28259-ICSD