
#(C) 2019 by FIZ Karlsruhe - Leibniz Institute for Information Infrastructure.  All rights reserved.
data_2887-ICSD
_database_code_ICSD 2887
_audit_creation_date 1980-01-01
_audit_update_record 2006-04-01
_chemical_name_systematic 'Tetrasodium diarsenate(V)'
_chemical_formula_structural 'Na4 (As2 O7)'
_chemical_formula_sum 'As2 Na4 O7'
_exptl_crystal_density_diffrn 3.17
_publ_section_title
'Crystal structure and phase transformations of sodium diarsenate, Na4 As2 O7'
loop_
_citation_id
_citation_journal_full
_citation_year
_citation_journal_volume
_citation_page_first
_citation_page_last
_citation_journal_id_ASTM
primary 'Canadian Journal of Chemistry' 1973 51 2082 2088 CJCHAG
loop_
_publ_author_name
'Leung, K.Y.'
'Calvo, C.'
_cell_length_a 5.969(1)
_cell_length_b 10.126(1)
_cell_length_c 12.272(3)
_cell_angle_alpha 90.
_cell_angle_beta 92.87(2)
_cell_angle_gamma 90.
_cell_volume 740.82
_cell_formula_units_Z 4
_symmetry_space_group_name_H-M 'C 1 2/c 1'
_symmetry_Int_Tables_number 15
_refine_ls_R_factor_all 0.027
loop_
_symmetry_equiv_pos_site_id
_symmetry_equiv_pos_as_xyz
1 'x, -y, z+1/2'
2 '-x, -y, -z'
3 '-x, y, -z+1/2'
4 'x, y, z'
5 'x+1/2, -y+1/2, z+1/2'
6 '-x+1/2, -y+1/2, -z'
7 '-x+1/2, y+1/2, -z+1/2'
8 'x+1/2, y+1/2, z'
loop_
_atom_type_symbol
_atom_type_oxidation_number
Na1+ 1
As5+ 5
O2- -2
loop_
_atom_site_label
_atom_site_type_symbol
_atom_site_symmetry_multiplicity
_atom_site_Wyckoff_symbol
_atom_site_fract_x
_atom_site_fract_y
_atom_site_fract_z
_atom_site_B_iso_or_equiv
_atom_site_occupancy
_atom_site_attached_hydrogens
Na1 Na1+ 8 f 0.3438(2) 0.3216(2) 0.1273(2) . 1. 0
Na2 Na1+ 8 f 0.3118(2) -.0155(2) 0.0958(1) . 1. 0
As1 As5+ 8 f 0.14474(5) 0.15226(3) 0.36050(2) . 1. 0
O1 O2- 4 e 0 0.0689(3) 0.25 . 1. 0
O2 O2- 8 f -.0605(5) 0.1787(3) 0.4442(2) . 1. 0
O3 O2- 8 f 0.3219(4) 0.0360(3) 0.4046(3) . 1. 0
O4 O2- 8 f 0.2649(4) 0.2870(2) 0.3133(2) . 1. 0
loop_
_atom_site_aniso_label
_atom_site_aniso_type_symbol
_atom_site_aniso_U_11
_atom_site_aniso_U_22
_atom_site_aniso_U_33
_atom_site_aniso_U_12
_atom_site_aniso_U_13
_atom_site_aniso_U_23
Na1 Na1+ 0.0157(8) 0.0194(7) 0.0146(7) -.0024(5) 0.0010(5) 0.0021(5)
Na2 Na1+ 0.0137(8) 0.0209(7) 0.0224(7) -.0011(5) 0.0017(6) 0.0023(5)
As1 As5+ 0.0067(2) 0.0084(2) 0.0079(2) 0.0006(1) 0.0004(1) 0.0012(1)
O1 O2- 0.025(2) 0.009(1) 0.017(1) 0 -.013(1) 0
O2 O2- 0.019(2) 0.030(2) 0.016(1) 0.007(1) 0.012(1) 0.005(1)
O3 O2- 0.012(1) 0.016(1) 0.019(1) 0.005(1) -.004(1) 0.0016(8)
O4 O2- 0.015(1) 0.014(1) 0.015(1) -.005(1) 0.000(1) 0.0029(8)
#End of TTdata_2887-ICSD