
#(C) 2019 by FIZ Karlsruhe - Leibniz Institute for Information Infrastructure.  All rights reserved.
data_290328-ICSD
_database_code_ICSD 290328
_audit_creation_date 2014-02-01
_chemical_name_systematic 'Disodium molybdenum dioxide diarsenate'
_chemical_formula_structural 'Na2 Mo O2 (As2 O7)'
_chemical_formula_sum 'As2 Mo1 Na2 O9'
_exptl_crystal_density_diffrn 3.5
_cell_measurement_temperature 298.
_publ_section_title 'Na2 Mo O2 As2 O7'
loop_
_citation_id
_citation_journal_full
_citation_year
_citation_journal_volume
_citation_page_first
_citation_page_last
_citation_journal_id_ASTM
primary 'Acta Crystallographica, Section E: Structure Reports Online' 2012 68
i93 i93 ACSEBH
loop_
_publ_author_name
'Jouini, R.'
'Zid, M.F.'
'Driss, A.'
_cell_length_a 7.1130(7)
_cell_length_b 12.056(2)
_cell_length_c 9.8030(9)
_cell_angle_alpha 90.
_cell_angle_beta 100.48(2)
_cell_angle_gamma 90.
_cell_volume 826.63
_cell_formula_units_Z 4
_symmetry_space_group_name_H-M 'P 1 21/c 1'
_symmetry_Int_Tables_number 14
_refine_ls_R_factor_all 0.0217
loop_
_symmetry_equiv_pos_site_id
_symmetry_equiv_pos_as_xyz
1 'x, -y+1/2, z+1/2'
2 '-x, -y, -z'
3 '-x, y+1/2, -z+1/2'
4 'x, y, z'
loop_
_atom_type_symbol
_atom_type_oxidation_number
Mo6+ 6
As5+ 5
Na1+ 1
O2- -2
loop_
_atom_site_label
_atom_site_type_symbol
_atom_site_symmetry_multiplicity
_atom_site_Wyckoff_symbol
_atom_site_fract_x
_atom_site_fract_y
_atom_site_fract_z
_atom_site_B_iso_or_equiv
_atom_site_occupancy
_atom_site_attached_hydrogens
Mo1 Mo6+ 4 e 0.14180(4) 0.82040(3) 0.04354(3) 0.01031(11) 1 0
As1 As5+ 4 e 0.42263(5) 0.83066(3) 0.78808(4) 0.01048(12) 1 0
As2 As5+ 4 e 0.81207(5) 0.92725(3) 0.79392(4) 0.00972(12) 1 0
Na1 Na1+ 4 e 0.3687(3) 0.09290(17) 0.8660(2) 0.0314(4) 1 0
Na2 Na1+ 4 e 0.504(10) 0.986(5) 0.494(7) 0.047(7) 0.5 0
Na3 Na1+ 4 e 0.9657(8) 0.9978(6) 0.4736(5) 0.0263(13) 0.5 0
O1 O2- 4 e 0.4007(4) 0.8279(2) 0.9549(3) 0.0166(6) 1 0
O2 O2- 4 e 0.3637(4) 0.9467(2) 0.7019(3) 0.0165(6) 1 0
O3 O2- 4 e 0.3405(4) 0.7092(2) 0.7129(3) 0.0151(5) 1 0
O4 O2- 4 e 0.0359(4) 0.8798(2) 0.8550(3) 0.0142(5) 1 0
O5 O2- 4 e 0.7368(4) 0.0110(2) 0.9099(3) 0.0136(5) 1 0
O6 O2- 4 e 0.9545(4) 0.8561(3) 0.1218(3) 0.0212(6) 1 0
O7 O2- 4 e 0.6693(4) 0.8070(2) 0.7961(3) 0.0158(6) 1 0
O8 O2- 4 e 0.7899(4) 0.9695(3) 0.6338(3) 0.0198(6) 1 0
O9 O2- 4 e 0.0977(5) 0.6856(2) 0.0018(3) 0.0237(7) 1 0
loop_
_atom_site_aniso_label
_atom_site_aniso_type_symbol
_atom_site_aniso_U_11
_atom_site_aniso_U_22
_atom_site_aniso_U_33
_atom_site_aniso_U_12
_atom_site_aniso_U_13
_atom_site_aniso_U_23
Mo1 Mo6+ 0.00956(17) 0.00924(17) 0.01180(17) 0.00032(11) 0.00105(12) 0.00149(11)
As1 As5+ 0.0103(2) 0.01014(19) 0.01110(19) -0.00184(13) 0.00220(14) -0.00231(13)
As2 As5+ 0.00852(18) 0.01071(19) 0.00969(18) -0.00010(13) 0.00098(13)
0.00109(13)
Na1 Na1+ 0.0221(9) 0.0364(10) 0.0343(10) 0.0016(8) 0.0013(8) -0.0166(9)
Na2 Na1+ 0.023(4) 0.09(2) 0.026(9) 0.028(13) 0.005(5) 0.027(13)
Na3 Na1+ 0.032(4) 0.0183(15) 0.035(4) 0.002(3) 0.022(3) 0.004(3)
O1 O2- 0.0135(13) 0.0258(15) 0.0105(12) 0.0011(11) 0.0024(10) -0.0042(11)
O2 O2- 0.0182(14) 0.0141(13) 0.0169(13) 0.0001(11) 0.0023(11) 0.0011(11)
O3 O2- 0.0167(13) 0.0130(13) 0.0144(12) -0.0048(11) -0.0001(10) -0.0022(11)
O4 O2- 0.0113(12) 0.0185(14) 0.0116(12) 0.0022(10) -0.0010(10) 0.0018(10)
O5 O2- 0.0139(12) 0.0115(12) 0.0153(12) 0.0018(10) 0.0023(10) -0.0009(10)
O6 O2- 0.0173(14) 0.0267(15) 0.0211(14) 0.0035(12) 0.0073(11) 0.0058(12)
O7 O2- 0.0122(13) 0.0116(12) 0.0243(14) -0.0022(10) 0.0056(11) -0.0031(11)
O8 O2- 0.0152(13) 0.0312(16) 0.0129(13) 0.0042(12) 0.0024(10) 0.0085(12)
O9 O2- 0.0277(16) 0.0133(14) 0.0277(16) -0.0043(12) -0.0014(13) 0.0008(12)
#End of TTdata_290328-ICSD