
#(C) 2019 by FIZ Karlsruhe - Leibniz Institute for Information Infrastructure.  All rights reserved.
data_291171-ICSD
_database_code_ICSD 291171
_audit_creation_date 2015-08-01
_chemical_name_systematic 'Sodium gadolinium tungsten oxide (0.43/0.55/1/4)'
_chemical_formula_structural '(Na0.430 Gd0.548) W0.988 O4'
_chemical_formula_sum 'Gd0.548 Na0.43 O4 W0.988'
_chemical_name_structure_type Scheelite-CaWO4
_chemical_name_mineral Scheelite
_exptl_crystal_density_diffrn 7.25
_cell_measurement_temperature 293.
_publ_section_title
'Structural perfection of (Na0.5 Gd0.5) Mo O4:Yb laser crystals'
loop_
_citation_id
_citation_journal_full
_citation_year
_citation_journal_volume
_citation_page_first
_citation_page_last
_citation_journal_id_ASTM
primary 'Acta Materialia' 2015 87 25 33 ACMAFD
loop_
_publ_author_name
'Kuz'micheva, G.M.'
'Kaurova, I.A.'
'Zagorul'ko, E.A.'
'Bolotina, N.B.'
'Rybakov, V.B.'
'Brykovskiy, A.A.'
'Zharikov, E.V.'
'Lis, D.A.'
'Subbotin, K.A.'
_cell_length_a 5.2435(3)
_cell_length_b 5.2435(3)
_cell_length_c 11.3807(9)
_cell_angle_alpha 90.
_cell_angle_beta 90.
_cell_angle_gamma 90.
_cell_volume 312.9
_cell_formula_units_Z 4
_symmetry_space_group_name_H-M 'I 41/a Z'
_symmetry_Int_Tables_number 88
_refine_ls_R_factor_all 0.025
loop_
_symmetry_equiv_pos_site_id
_symmetry_equiv_pos_as_xyz
1 '-y+3/4, x+3/4, -z+3/4'
2 'y+1/4, -x+3/4, -z+3/4'
3 'x, y+1/2, -z'
4 '-x, -y, -z'
5 'y+1/4, -x+1/4, z+1/4'
6 '-y+3/4, x+1/4, z+1/4'
7 '-x, -y+1/2, z'
8 'x, y, z'
9 '-y+1/4, x+1/4, -z+1/4'
10 'y+3/4, -x+1/4, -z+1/4'
11 'x+1/2, y, -z+1/2'
12 '-x+1/2, -y+1/2, -z+1/2'
13 'y+3/4, -x+3/4, z+3/4'
14 '-y+1/4, x+3/4, z+3/4'
15 '-x+1/2, -y, z+1/2'
16 'x+1/2, y+1/2, z+1/2'
loop_
_atom_type_symbol
_atom_type_oxidation_number
Na1+ 1
Gd3+ 3
W6+ 6
O2- -2
loop_
_atom_site_label
_atom_site_type_symbol
_atom_site_symmetry_multiplicity
_atom_site_Wyckoff_symbol
_atom_site_fract_x
_atom_site_fract_y
_atom_site_fract_z
_atom_site_B_iso_or_equiv
_atom_site_occupancy
_atom_site_attached_hydrogens
Na1 Na1+ 4 a 0 0.25 0.125 0.0059(6) 0.4300(3) 0
Gd1 Gd3+ 4 a 0 0.25 0.125 0.0059(6) 0.5480(3) 0
W1 W6+ 4 b 0.5 0.75 0.125 0.0871(3) 0.9880(7) 0
O1 O2- 16 f 0.2554(6) 0.4037(5) -0.0399(2) 0.0178(5) 1.000(3) 0
#End of TTdata_291171-ICSD