
#(C) 2019 by FIZ Karlsruhe - Leibniz Institute for Information Infrastructure.  All rights reserved.
data_291186-ICSD
_database_code_ICSD 291186
_audit_creation_date 2015-08-01
_chemical_name_systematic 'Sodium lithium iron digermanate (0.5/0.5/1/1)'
_chemical_formula_structural 'Na0.5 Li0.5 Fe Ge2 O6'
_chemical_formula_sum 'Fe1 Ge2 Li0.5 Na0.5 O6'
_chemical_name_structure_type Pyroxene-CaMg(SiO3)2
_chemical_name_mineral Pyroxene
_exptl_crystal_density_diffrn 4.48
_cell_measurement_temperature 300.
_publ_section_title

;
Crystal and magnetic structures, phase transitions in quasi-one-dimensional
pyroxenes Na0.5 Li0.5 Fe Ge2 O6
;
loop_
_citation_id
_citation_journal_full
_citation_year
_citation_journal_volume
_citation_page_first
_citation_page_last
_citation_journal_id_ASTM
primary 'Journal of Magnetism and Magnetic Materials' 2015 385 243 249 JMMMDC
loop_
_publ_author_name
'Drokina, T.V.'
'Petrakovskii, G.A.'
'Molokeev, M.S.'
'Misyul, S.V.'
'Bondarev, V.S.'
'Velikanov, D.A.'
'Frontzek, M.'
'Schefer, J.'
_cell_length_a 10.0333(1)
_cell_length_b 8.8136(1)
_cell_length_c 5.52965(9)
_cell_angle_alpha 90
_cell_angle_beta 108.921(1)
_cell_angle_gamma 90
_cell_volume 462.56
_cell_formula_units_Z 4
_symmetry_space_group_name_H-M 'C 1 2/c 1'
_symmetry_Int_Tables_number 15
_refine_ls_R_factor_all 0.0267
loop_
_symmetry_equiv_pos_site_id
_symmetry_equiv_pos_as_xyz
1 'x, -y, z+1/2'
2 '-x, -y, -z'
3 '-x, y, -z+1/2'
4 'x, y, z'
5 'x+1/2, -y+1/2, z+1/2'
6 '-x+1/2, -y+1/2, -z'
7 '-x+1/2, y+1/2, -z+1/2'
8 'x+1/2, y+1/2, z'
loop_
_atom_type_symbol
_atom_type_oxidation_number
Li1+ 1
Na1+ 1
Fe3+ 3
Ge4+ 4
O2- -2
loop_
_atom_site_label
_atom_site_type_symbol
_atom_site_symmetry_multiplicity
_atom_site_Wyckoff_symbol
_atom_site_fract_x
_atom_site_fract_y
_atom_site_fract_z
_atom_site_B_iso_or_equiv
_atom_site_occupancy
_atom_site_attached_hydrogens
Li1 Li1+ 4 e 0 0.292(2) 0.25 0.5(4) 0.5 0
Na1 Na1+ 4 e 0 0.292(2) 0.25 0.5(4) 0.5 0
Fe1 Fe3+ 4 e 0 0.9063(5) 0.25 0.5(4) 1. 0
Ge1 Ge4+ 8 f 0.2878(2) 0.0920(3) 0.2381(5) 0.5(2) 1. 0
O1 O2- 8 f 0.1009(8) 0.091(1) 0.163(2) 1.0(3) 1. 0
O2 O2- 8 f 0.360(1) 0.274(1) 0.308(2) 1.0(3) 1. 0
O3 O2- 8 f 0.343(1) 0.003(1) 0.033(4) 1.0(3) 1. 0
#End of TTdata_291186-ICSD