
#(C) 2019 by FIZ Karlsruhe - Leibniz Institute for Information Infrastructure.  All rights reserved.
data_291166-ICSD
_database_code_ICSD 291166
_audit_creation_date 2015-08-01
_chemical_name_systematic 'Sodium gadolinium molybdenum oxide (0.5/0.51/1/4)'
_chemical_formula_structural '(Na0.495 Gd0.505) Mo0.994 O3.988'
_chemical_formula_sum 'Gd0.505 Mo0.994 Na0.495 O3.988'
_chemical_name_structure_type Scheelite-CaWO4
_chemical_name_mineral Scheelite
_exptl_crystal_density_diffrn 5.31
_cell_measurement_temperature 293.
_publ_section_title
'Structural perfection of (Na0.5 Gd0.5) Mo O4:Yb laser crystals'
loop_
_citation_id
_citation_journal_full
_citation_year
_citation_journal_volume
_citation_page_first
_citation_page_last
_citation_journal_id_ASTM
primary 'Acta Materialia' 2015 87 25 33 ACMAFD
loop_
_publ_author_name
'Kuz'micheva, G.M.'
'Kaurova, I.A.'
'Zagorul'ko, E.A.'
'Bolotina, N.B.'
'Rybakov, V.B.'
'Brykovskiy, A.A.'
'Zharikov, E.V.'
'Lis, D.A.'
'Subbotin, K.A.'
_cell_length_a 5.2322(19)
_cell_length_b 5.2322(19)
_cell_length_c 11.4228(6)
_cell_angle_alpha 90.
_cell_angle_beta 90.
_cell_angle_gamma 90.
_cell_volume 312.7
_cell_formula_units_Z 4
_symmetry_space_group_name_H-M 'I 41/a S'
_symmetry_Int_Tables_number 88
_refine_ls_R_factor_all 0.0307
loop_
_symmetry_equiv_pos_site_id
_symmetry_equiv_pos_as_xyz
1 'y, -x+1/2, z+1/4'
2 '-y, x+1/2, z+1/4'
3 'y, -x, -z'
4 '-y, x, -z'
5 '-x, -y+1/2, -z+1/4'
6 'x, y+1/2, -z+1/4'
7 '-x, -y, z'
8 'x, y, z'
9 'y+1/2, -x, z+3/4'
10 '-y+1/2, x, z+3/4'
11 'y+1/2, -x+1/2, -z+1/2'
12 '-y+1/2, x+1/2, -z+1/2'
13 '-x+1/2, -y, -z+3/4'
14 'x+1/2, y, -z+3/4'
15 '-x+1/2, -y+1/2, z+1/2'
16 'x+1/2, y+1/2, z+1/2'
loop_
_atom_type_symbol
_atom_type_oxidation_number
Na1+ 1
Gd3+ 3
Mo6+ 6
O2- -2
loop_
_atom_site_label
_atom_site_type_symbol
_atom_site_symmetry_multiplicity
_atom_site_Wyckoff_symbol
_atom_site_fract_x
_atom_site_fract_y
_atom_site_fract_z
_atom_site_B_iso_or_equiv
_atom_site_occupancy
_atom_site_attached_hydrogens
Na1 Na1+ 4 a 0 0 0 0.006504(3) 0.4952(3) 0
Gd1 Gd3+ 4 a 0 0 0 0.006504(3) 0.5052(3) 0
Mo1 Mo6+ 4 b 0 0 0.5 0.008991(4) 0.9940(5) 0
O1 O2- 16 f 0.2426(3) 0.1499(4) 0.0844(4) 0.016113(9) 0.997(2) 0
#End of TTdata_291166-ICSD