
#(C) 2019 by FIZ Karlsruhe - Leibniz Institute for Information Infrastructure.  All rights reserved.
data_291246-ICSD
_database_code_ICSD 291246
_audit_creation_date 2015-08-01
_chemical_name_systematic 'Sodium titanium(III) uranium fluoride (3/1/6/30)'
_chemical_formula_structural 'Na3 Ti U6 F30'
_chemical_formula_sum 'F30 Na3 Ti1 U6'
_chemical_name_structure_type Na3FeU6F30
_exptl_crystal_density_diffrn 6.44
_cell_measurement_temperature 100.
_publ_section_title

;
Trivalent cation-controlled phase space of new U(IV) fluorides, Na3 M U6 F30
(M = Al(3+), Ga(3+), Ti(3+), V(3+), Cr(3+), Fe(3+)): mild hydrothermal
synthesis including an in situ reduction step, structures, optical, and
magnetic properties
;
loop_
_citation_id
_citation_journal_full
_citation_year
_citation_journal_volume
_citation_page_first
_citation_page_last
_citation_journal_id_ASTM
primary 'Inorganic Chemistry' 2015 54 2058 2066 INOCAJ
loop_
_publ_author_name
'Yeon, Jeongho'
'Smith, Mark D.'
'Morrison, Gregory'
'zur Loye, Hans-Conrad'
_cell_length_a 9.8556(3)
_cell_length_b 9.8556(3)
_cell_length_c 12.9667(8)
_cell_angle_alpha 90
_cell_angle_beta 90
_cell_angle_gamma 120
_cell_volume 1090.75
_cell_formula_units_Z 2
_symmetry_space_group_name_H-M 'P -3 c 1'
_symmetry_Int_Tables_number 165
_refine_ls_R_factor_all 0.0302
loop_
_symmetry_equiv_pos_site_id
_symmetry_equiv_pos_as_xyz
1 'x-y, -y, -z+1/2'
2 '-x, -x+y, -z+1/2'
3 'y, x, -z+1/2'
4 'x-y, x, -z'
5 'y, -x+y, -z'
6 '-x, -y, -z'
7 '-x+y, y, z+1/2'
8 'x, x-y, z+1/2'
9 '-y, -x, z+1/2'
10 '-x+y, -x, z'
11 '-y, x-y, z'
12 'x, y, z'
loop_
_atom_type_symbol
_atom_type_oxidation_number
U4+ 4
Ti3+ 3
Na1+ 1
F1- -1
loop_
_atom_site_label
_atom_site_type_symbol
_atom_site_symmetry_multiplicity
_atom_site_Wyckoff_symbol
_atom_site_fract_x
_atom_site_fract_y
_atom_site_fract_z
_atom_site_B_iso_or_equiv
_atom_site_occupancy
_atom_site_attached_hydrogens
U1 U4+ 12 g 0.39988(2) 0.32422(2) 0.39808(2) 0.00777(7) 1 0
Ti1 Ti3+ 2 a 0. 0. 0.25 0.0222(6) 1 0
Na1 Na1+ 4 d 0.3333 0.6667 0.3381(3) 0.0103(7) 1 0
Na2 Na1+ 2 b 0. 0. 0.5 0.038(2) 1 0
F1 F1- 12 g 0.3047(4) 0.4360(4) 0.2835(3) 0.0120(6) 1 0
F2 F1- 12 g 0.1904(4) 0.3081(4) 0.4818(3) 0.0117(6) 1 0
F3 F1- 12 g 0.5333(4) 0.4138(4) 0.5518(3) 0.0119(6) 1 0
F4 F1- 12 g 0.1814(5) 0.1007(5) 0.3364(3) 0.0181(8) 1 0
F5 F1- 12 g 0.5115(4) 0.1706(4) 0.3630(3) 0.0118(6) 1 0
loop_
_atom_site_aniso_label
_atom_site_aniso_type_symbol
_atom_site_aniso_U_11
_atom_site_aniso_U_22
_atom_site_aniso_U_33
_atom_site_aniso_U_12
_atom_site_aniso_U_13
_atom_site_aniso_U_23
U1 U4+ 0.00908(10) 0.00960(10) 0.00491(10) 0.00488(7) 0.00002(6) 0.00024(6)
Ti1 Ti3+ 0.0230(9) 0.0230(9) 0.0205(13) 0.0115(4) 0. 0.
Na1 Na1+ 0.0101(11) 0.0101(11) 0.0107(16) 0.0050(5) 0. 0.
Na2 Na1+ 0.025(2) 0.025(2) 0.065(7) 0.0125(12) 0. 0.
F1 F1- 0.0179(16) 0.0165(16) 0.0060(13) 0.0118(14) -0.0021(12) -0.0004(12)
F2 F1- 0.0128(15) 0.0154(15) 0.0084(13) 0.0082(13) 0.0018(11) 0.0001(12)
F3 F1- 0.0136(15) 0.0141(15) 0.0092(13) 0.0077(13) -0.0002(12) 0.0015(12)
F4 F1- 0.0168(17) 0.0219(19) 0.0137(15) 0.0083(15) -0.0020(13) 0.0027(14)
F5 F1- 0.0138(15) 0.0135(15) 0.0108(14) 0.0089(13) 0.0005(12) 0.0008(12)
#End of TTdata_291246-ICSD