
#(C) 2019 by FIZ Karlsruhe - Leibniz Institute for Information Infrastructure.  All rights reserved.
data_291245-ICSD
_database_code_ICSD 291245
_audit_creation_date 2015-08-01
_chemical_name_systematic 'Sodium gallium uranium fluoride (3/1/6/30)'
_chemical_formula_structural 'Na3 Ga U6 F30'
_chemical_formula_sum 'F30 Ga1 Na3 U6'
_chemical_name_structure_type Na3FeU6F30
_exptl_crystal_density_diffrn 6.51
_cell_measurement_temperature 294.
_publ_section_title

;
Trivalent cation-controlled phase space of new U(IV) fluorides, Na3 M U6 F30
(M = Al(3+), Ga(3+), Ti(3+), V(3+), Cr(3+), Fe(3+)): mild hydrothermal
synthesis including an in situ reduction step, structures, optical, and
magnetic properties
;
loop_
_citation_id
_citation_journal_full
_citation_year
_citation_journal_volume
_citation_page_first
_citation_page_last
_citation_journal_id_ASTM
primary 'Inorganic Chemistry' 2015 54 2058 2066 INOCAJ
loop_
_publ_author_name
'Yeon, Jeongho'
'Smith, Mark D.'
'Morrison, Gregory'
'zur Loye, Hans-Conrad'
_cell_length_a 9.8488(1)
_cell_length_b 9.8488(1)
_cell_length_c 12.9757(3)
_cell_angle_alpha 90.
_cell_angle_beta 90.
_cell_angle_gamma 120.
_cell_volume 1090.
_cell_formula_units_Z 2
_symmetry_space_group_name_H-M 'P -3 c 1'
_symmetry_Int_Tables_number 165
_refine_ls_R_factor_all 0.0203
loop_
_symmetry_equiv_pos_site_id
_symmetry_equiv_pos_as_xyz
1 'x-y, -y, -z+1/2'
2 '-x, -x+y, -z+1/2'
3 'y, x, -z+1/2'
4 'x-y, x, -z'
5 'y, -x+y, -z'
6 '-x, -y, -z'
7 '-x+y, y, z+1/2'
8 'x, x-y, z+1/2'
9 '-y, -x, z+1/2'
10 '-x+y, -x, z'
11 '-y, x-y, z'
12 'x, y, z'
loop_
_atom_type_symbol
_atom_type_oxidation_number
U4+ 4
Ga3+ 3
Na1+ 1
F1- -1
loop_
_atom_site_label
_atom_site_type_symbol
_atom_site_symmetry_multiplicity
_atom_site_Wyckoff_symbol
_atom_site_fract_x
_atom_site_fract_y
_atom_site_fract_z
_atom_site_B_iso_or_equiv
_atom_site_occupancy
_atom_site_attached_hydrogens
U1 U4+ 12 g 0.67681(2) 0.60039(2) 0.102255(16) 0.00960(10) 1 0
Ga1 Ga3+ 2 a 1. 1. 0.25 0.0103(3) 1 0
Na1 Na1+ 4 d 0.3333 0.6667 0.1646(4) 0.0188(9) 1 0
Na2 Na1+ 2 b 1. 1. 0. 0.043(2) 1 0
F1 F1- 12 g 0.5665(5) 0.6978(5) 0.2154(3) 0.0208(8) 1 0
F2 F1- 12 g 0.6927(4) 0.8078(4) 0.0173(3) 0.0161(7) 1 0
F3 F1- 12 g 0.5872(4) 0.4677(4) -0.0518(3) 0.0160(7) 1 0
F4 F1- 12 g 0.9182(5) 1.0967(5) 0.1642(3) 0.0186(8) 1 0
F5 F1- 12 g 0.8296(5) 0.4879(5) 0.1385(3) 0.0205(8) 1 0
loop_
_atom_site_aniso_label
_atom_site_aniso_type_symbol
_atom_site_aniso_U_11
_atom_site_aniso_U_22
_atom_site_aniso_U_33
_atom_site_aniso_U_12
_atom_site_aniso_U_13
_atom_site_aniso_U_23
U1 U4+ 0.01036(13) 0.00829(13) 0.01023(14) 0.00472(9) 0.00042(7) 0.00002(7)
Ga1 Ga3+ 0.0097(4) 0.0097(4) 0.0115(7) 0.0048(2) 0. 0.
Na1 Na1+ 0.0140(14) 0.0140(14) 0.029(2) 0.0070(7) 0. 0.
Na2 Na1+ 0.045(3) 0.045(3) 0.038(5) 0.0224(16) 0. 0.
F1 F1- 0.020(2) 0.035(2) 0.0141(18) 0.0194(19) -0.0026(14) -0.0042(16)
F2 F1- 0.0177(18) 0.0167(18) 0.0179(18) 0.0116(15) 0.0002(14) 0.0052(14)
F3 F1- 0.0146(17) 0.0173(19) 0.0155(17) 0.0075(15) 0.0003(14) -0.0062(14)
F4 F1- 0.024(2) 0.0186(19) 0.0181(18) 0.0148(17) -0.0025(15) 0.0039(15)
F5 F1- 0.022(2) 0.0184(19) 0.027(2) 0.0143(17) 0.0045(16) 0.0002(16)
#End of TTdata_291245-ICSD