
#(C) 2019 by FIZ Karlsruhe - Leibniz Institute for Information Infrastructure.  All rights reserved.
data_291244-ICSD
_database_code_ICSD 291244
_audit_creation_date 2015-08-01
_chemical_name_systematic 'Sodium aluminium uranium fluoride (3/1/6/30)'
_chemical_formula_structural 'Na3 Al U6 F30'
_chemical_formula_sum 'Al1 F30 Na3 U6'
_chemical_name_structure_type Na3FeU6F30
_exptl_crystal_density_diffrn 6.52
_cell_measurement_temperature 294.
_publ_section_title

;
Trivalent cation-controlled phase space of new U(IV) fluorides, Na3 M U6 F30
(M = Al(3+), Ga(3+), Ti(3+), V(3+), Cr(3+), Fe(3+)): mild hydrothermal
synthesis including an in situ reduction step, structures, optical, and
magnetic properties
;
loop_
_citation_id
_citation_journal_full
_citation_year
_citation_journal_volume
_citation_page_first
_citation_page_last
_citation_journal_id_ASTM
primary 'Inorganic Chemistry' 2015 54 2058 2066 INOCAJ
loop_
_publ_author_name
'Yeon, Jeongho'
'Smith, Mark D.'
'Morrison, Gregory'
'zur Loye, Hans-Conrad'
_cell_length_a 9.771(3)
_cell_length_b 9.771(3)
_cell_length_c 12.896(7)
_cell_angle_alpha 90.
_cell_angle_beta 90.
_cell_angle_gamma 120.
_cell_volume 1066.26
_cell_formula_units_Z 2
_symmetry_space_group_name_H-M 'P -3 c 1'
_symmetry_Int_Tables_number 165
_refine_ls_R_factor_all 0.0188
loop_
_symmetry_equiv_pos_site_id
_symmetry_equiv_pos_as_xyz
1 'x-y, -y, -z+1/2'
2 '-x, -x+y, -z+1/2'
3 'y, x, -z+1/2'
4 'x-y, x, -z'
5 'y, -x+y, -z'
6 '-x, -y, -z'
7 '-x+y, y, z+1/2'
8 'x, x-y, z+1/2'
9 '-y, -x, z+1/2'
10 '-x+y, -x, z'
11 '-y, x-y, z'
12 'x, y, z'
loop_
_atom_type_symbol
_atom_type_oxidation_number
U4+ 4
Al3+ 3
Na1+ 1
F1- -1
loop_
_atom_site_label
_atom_site_type_symbol
_atom_site_symmetry_multiplicity
_atom_site_Wyckoff_symbol
_atom_site_fract_x
_atom_site_fract_y
_atom_site_fract_z
_atom_site_B_iso_or_equiv
_atom_site_occupancy
_atom_site_attached_hydrogens
U1 U4+ 12 g 0.67778(2) 0.60168(2) 0.102790(15) 0.00680(7) 1 0
Al1 Al3+ 2 a 0. 0. 0.25 0.0075(8) 1 0
Na1 Na1+ 4 d 0.3333 0.6667 0.1618(3) 0.0147(9) 1 0
Na2 Na1+ 2 b 0. 0. 0. 0.0240(15) 1 0
F1 F1- 12 g 0.5662(4) 0.6977(4) 0.2156(3) 0.0130(7) 1 0
F2 F1- 12 g 0.6950(4) 0.8104(4) 0.0158(3) 0.0129(7) 1 0
F3 F1- 12 g 0.5866(4) 0.4665(4) -0.0503(3) 0.0126(7) 1 0
F4 F1- 12 g 0.9048(4) 0.8286(4) 0.1669(3) 0.0126(7) 1 0
F5 F1- 12 g 0.8298(4) 0.4879(4) 0.1389(3) 0.0153(7) 1 0
loop_
_atom_site_aniso_label
_atom_site_aniso_type_symbol
_atom_site_aniso_U_11
_atom_site_aniso_U_22
_atom_site_aniso_U_33
_atom_site_aniso_U_12
_atom_site_aniso_U_13
_atom_site_aniso_U_23
U1 U4+ 0.00828(11) 0.00708(11) 0.00506(11) 0.00385(8) 0.00020(7) -0.00015(7)
Al1 Al3+ 0.0077(12) 0.0077(12) 0.0070(19) 0.0039(6) 0. 0.
Na1 Na1+ 0.0121(13) 0.0121(13) 0.020(2) 0.0060(6) 0. 0.
Na2 Na1+ 0.025(2) 0.025(2) 0.021(3) 0.0127(11) 0. 0.
F1 F1- 0.0148(18) 0.0220(19) 0.0068(16) 0.0128(16) -0.0015(13) -0.0026(14)
F2 F1- 0.0187(19) 0.0115(17) 0.0088(16) 0.0077(15) 0.0002(14) 0.0041(13)
F3 F1- 0.0124(17) 0.0166(18) 0.0089(15) 0.0074(15) -0.0011(13) -0.0052(14)
F4 F1- 0.0159(18) 0.0108(17) 0.0097(16) 0.0055(15) -0.0017(13) -0.0032(13)
F5 F1- 0.0157(18) 0.0172(19) 0.0167(18) 0.0112(15) 0.0003(15) -0.0005(15)
#End of TTdata_291244-ICSD