
#(C) 2019 by FIZ Karlsruhe - Leibniz Institute for Information Infrastructure.  All rights reserved.
data_291247-ICSD
_database_code_ICSD 291247
_audit_creation_date 2015-08-01
_chemical_name_systematic 'Sodium vanadium(III) uranium fluoride (3/1/6/30)'
_chemical_formula_structural 'Na3 V U6 F30'
_chemical_formula_sum 'F30 Na3 U6 V1'
_chemical_name_structure_type Na3FeU6F30
_exptl_crystal_density_diffrn 6.48
_cell_measurement_temperature 100.
_publ_section_title

;
Trivalent cation-controlled phase space of new U(IV) fluorides, Na3 M U6 F30
(M = Al(3+), Ga(3+), Ti(3+), V(3+), Cr(3+), Fe(3+)): mild hydrothermal
synthesis including an in situ reduction step, structures, optical, and
magnetic properties
;
loop_
_citation_id
_citation_journal_full
_citation_year
_citation_journal_volume
_citation_page_first
_citation_page_last
_citation_journal_id_ASTM
primary 'Inorganic Chemistry' 2015 54 2058 2066 INOCAJ
loop_
_publ_author_name
'Yeon, Jeongho'
'Smith, Mark D.'
'Morrison, Gregory'
'zur Loye, Hans-Conrad'
_cell_length_a 9.8283(4)
_cell_length_b 9.8283(4)
_cell_length_c 12.9669(11)
_cell_angle_alpha 90
_cell_angle_beta 90
_cell_angle_gamma 120
_cell_volume 1084.73
_cell_formula_units_Z 2
_symmetry_space_group_name_H-M 'P -3 c 1'
_symmetry_Int_Tables_number 165
_refine_ls_R_factor_all 0.0296
loop_
_symmetry_equiv_pos_site_id
_symmetry_equiv_pos_as_xyz
1 'x-y, -y, -z+1/2'
2 '-x, -x+y, -z+1/2'
3 'y, x, -z+1/2'
4 'x-y, x, -z'
5 'y, -x+y, -z'
6 '-x, -y, -z'
7 '-x+y, y, z+1/2'
8 'x, x-y, z+1/2'
9 '-y, -x, z+1/2'
10 '-x+y, -x, z'
11 '-y, x-y, z'
12 'x, y, z'
loop_
_atom_type_symbol
_atom_type_oxidation_number
U4+ 4
V3+ 3
Na1+ 1
F1- -1
loop_
_atom_site_label
_atom_site_type_symbol
_atom_site_symmetry_multiplicity
_atom_site_Wyckoff_symbol
_atom_site_fract_x
_atom_site_fract_y
_atom_site_fract_z
_atom_site_B_iso_or_equiv
_atom_site_occupancy
_atom_site_attached_hydrogens
U1 U4+ 12 g 0.40016(2) 0.32479(2) 0.39805(2) 0.00732(5) 1 0
V1 V3+ 2 a 0. 0. 0.25 0.0169(4) 1 0
Na1 Na1+ 4 d 0.3333 0.6667 0.3381(3) 0.0107(6) 1 0
Na2 Na1+ 2 b 0. 0. 0.5 0.0211(11) 1 0
F1 F1- 12 g 0.3039(4) 0.4354(3) 0.2837(2) 0.0117(5) 1 0
F2 F1- 12 g 0.1904(3) 0.3073(3) 0.4824(2) 0.0110(5) 1 0
F3 F1- 12 g 0.5333(4) 0.4133(3) 0.5517(2) 0.0111(5) 1 0
F4 F1- 12 g 0.1785(4) 0.0979(4) 0.3364(3) 0.0143(6) 1 0
F5 F1- 12 g 0.5115(3) 0.1710(3) 0.3627(2) 0.0114(5) 1 0
loop_
_atom_site_aniso_label
_atom_site_aniso_type_symbol
_atom_site_aniso_U_11
_atom_site_aniso_U_22
_atom_site_aniso_U_33
_atom_site_aniso_U_12
_atom_site_aniso_U_13
_atom_site_aniso_U_23
U1 U4+ 0.00743(8) 0.00790(7) 0.00675(8) 0.00392(5) 0.00006(4) 0.00015(4)
V1 V3+ 0.0169(6) 0.0169(6) 0.0168(9) 0.0084(3) 0. 0.
Na1 Na1+ 0.0097(9) 0.0097(9) 0.0127(14) 0.0049(4) 0. 0.
Na2 Na1+ 0.0226(17) 0.0226(17) 0.018(3) 0.0113(9) 0. 0.
F1 F1- 0.0163(13) 0.0127(12) 0.0090(11) 0.0094(11) -0.0009(10) -0.0004(9)
F2 F1- 0.0106(11) 0.0123(12) 0.0106(11) 0.0060(10) 0.0026(9) 0.0017(9)
F3 F1- 0.0131(12) 0.0116(12) 0.0101(11) 0.0074(10) -0.0018(10) -0.0002(9)
F4 F1- 0.0119(12) 0.0133(13) 0.0161(13) 0.0049(11) -0.0005(10) 0.0013(11)
F5 F1- 0.0118(12) 0.0118(12) 0.0125(12) 0.0073(10) 0.0003(10) 0.0011(10)
#End of TTdata_291247-ICSD