
#(C) 2019 by FIZ Karlsruhe - Leibniz Institute for Information Infrastructure.  All rights reserved.
data_291248-ICSD
_database_code_ICSD 291248
_audit_creation_date 2015-08-01
_chemical_name_systematic 'Sodium chromium uranium fluoride (3/1/6/30)'
_chemical_formula_structural 'Na3 Cr U6 F30'
_chemical_formula_sum 'Cr1 F30 Na3 U6'
_chemical_name_structure_type Na3FeU6F30
_exptl_crystal_density_diffrn 6.48
_cell_measurement_temperature 100.
_publ_section_title

;
Trivalent cation-controlled phase space of new U(IV) fluorides, Na3 M U6 F30
(M = Al(3+), Ga(3+), Ti(3+), V(3+), Cr(3+), Fe(3+)): mild hydrothermal
synthesis including an in situ reduction step, structures, optical, and
magnetic properties
;
loop_
_citation_id
_citation_journal_full
_citation_year
_citation_journal_volume
_citation_page_first
_citation_page_last
_citation_journal_id_ASTM
primary 'Inorganic Chemistry' 2015 54 2058 2066 INOCAJ
loop_
_publ_author_name
'Yeon, Jeongho'
'Smith, Mark D.'
'Morrison, Gregory'
'zur Loye, Hans-Conrad'
_cell_length_a 9.8324(6)
_cell_length_b 9.8324(6)
_cell_length_c 12.9676(14)
_cell_angle_alpha 90
_cell_angle_beta 90
_cell_angle_gamma 120
_cell_volume 1085.69
_cell_formula_units_Z 2
_symmetry_space_group_name_H-M 'P -3 c 1'
_symmetry_Int_Tables_number 165
_refine_ls_R_factor_all 0.0298
loop_
_symmetry_equiv_pos_site_id
_symmetry_equiv_pos_as_xyz
1 'x-y, -y, -z+1/2'
2 '-x, -x+y, -z+1/2'
3 'y, x, -z+1/2'
4 'x-y, x, -z'
5 'y, -x+y, -z'
6 '-x, -y, -z'
7 '-x+y, y, z+1/2'
8 'x, x-y, z+1/2'
9 '-y, -x, z+1/2'
10 '-x+y, -x, z'
11 '-y, x-y, z'
12 'x, y, z'
loop_
_atom_type_symbol
_atom_type_oxidation_number
U4+ 4
Cr3+ 3
Na1+ 1
F1- -1
loop_
_atom_site_label
_atom_site_type_symbol
_atom_site_symmetry_multiplicity
_atom_site_Wyckoff_symbol
_atom_site_fract_x
_atom_site_fract_y
_atom_site_fract_z
_atom_site_B_iso_or_equiv
_atom_site_occupancy
_atom_site_attached_hydrogens
U1 U4+ 12 g 0.39969(3) 0.32397(3) 0.39791(2) 0.00621(8) 1 0
Cr1 Cr3+ 2 a 0. 0. 0.25 0.0088(5) 1 0
Na1 Na1+ 4 d 0.3333 0.6667 0.3377(4) 0.0093(9) 1 0
Na2 Na1+ 2 b 0. 0. 0.5 0.0239(18) 1 0
F1 F1- 12 g 0.3031(5) 0.4345(5) 0.2837(3) 0.0120(8) 1 0
F2 F1- 12 g 0.1906(5) 0.3066(5) 0.4820(3) 0.0097(8) 1 0
F3 F1- 12 g 0.5335(5) 0.4140(5) 0.5516(3) 0.0105(8) 1 0
F4 F1- 12 g 0.1805(5) 0.0969(5) 0.3367(3) 0.0111(8) 1 0
F5 F1- 12 g 0.5117(5) 0.1712(5) 0.3624(3) 0.0111(8) 1 0
loop_
_atom_site_aniso_label
_atom_site_aniso_type_symbol
_atom_site_aniso_U_11
_atom_site_aniso_U_22
_atom_site_aniso_U_33
_atom_site_aniso_U_12
_atom_site_aniso_U_13
_atom_site_aniso_U_23
U1 U4+ 0.00524(12) 0.00605(12) 0.00745(12) 0.00290(9) 0.00000(7) 0.00023(7)
Cr1 Cr3+ 0.0077(8) 0.0077(8) 0.0110(11) 0.0039(4) 0. 0.
Na1 Na1+ 0.0066(14) 0.0066(14) 0.015(2) 0.0033(7) 0. 0.
Na2 Na1+ 0.025(3) 0.025(3) 0.022(4) 0.0125(15) 0. 0.
F1 F1- 0.020(2) 0.012(2) 0.0088(17) 0.0119(19) -0.0015(15) -0.0019(14)
F2 F1- 0.0094(19) 0.010(2) 0.0114(17) 0.0057(16) 0.0012(14) 0.0012(14)
F3 F1- 0.012(2) 0.010(2) 0.0118(17) 0.0066(17) -0.0014(15) 0.0014(14)
F4 F1- 0.010(2) 0.010(2) 0.0150(18) 0.0054(17) -0.0029(14) -0.0009(15)
F5 F1- 0.009(2) 0.012(2) 0.0140(18) 0.0062(17) -0.0009(15) 0.0006(15)
#End of TTdata_291248-ICSD