
#(C) 2019 by FIZ Karlsruhe - Leibniz Institute for Information Infrastructure.  All rights reserved.
data_291423-ICSD
_database_code_ICSD 291423
_audit_creation_date 2015-08-01
_chemical_name_systematic
'Calcium sodium fluoride iron arsenide (0.89/0.11/1/1/1)'
_chemical_formula_structural '(Ca0.89 Na0.11) F Fe As'
_chemical_formula_sum 'As1 Ca0.89 F1 Fe1 Na0.11'
_chemical_name_structure_type ZrCuSiAs-CuHfSi2
_exptl_crystal_density_diffrn 4.83
_publ_section_title

;
Crystal structure and superconducting properties of hole-doped Ca0.89 Na0.11 F
Fe As single crystals
;
loop_
_citation_id
_citation_journal_full
_citation_year
_citation_journal_volume
_citation_page_first
_citation_page_last
_citation_journal_id_ASTM
primary 'Superconductor Science and Technology' 2014 27 044011-1 044011-8 SUSTEF
loop_
_publ_author_name
'Shlyk, L.'
'Wolff, K.K.'
'Bischoff, M.'
'Rose, E.'
'Schleid, Th.'
'Niewa, R.'
_cell_length_a 3.878(1)
_cell_length_b 3.878(1)
_cell_length_c 8.599(2)
_cell_angle_alpha 90.
_cell_angle_beta 90.
_cell_angle_gamma 90.
_cell_volume 129.32
_cell_formula_units_Z 2
_symmetry_space_group_name_H-M 'P 4/n m m Z'
_symmetry_Int_Tables_number 129
_refine_ls_R_factor_all 0.031
loop_
_symmetry_equiv_pos_site_id
_symmetry_equiv_pos_as_xyz
1 'y+1/2, x+1/2, -z'
2 '-y, x+1/2, -z'
3 'y+1/2, -x, -z'
4 '-y, -x, -z'
5 'x+1/2, y+1/2, -z'
6 '-x, y+1/2, -z'
7 'x+1/2, -y, -z'
8 '-x, -y, -z'
9 '-y+1/2, -x+1/2, z'
10 'y, -x+1/2, z'
11 '-y+1/2, x, z'
12 'y, x, z'
13 '-x+1/2, -y+1/2, z'
14 'x, -y+1/2, z'
15 '-x+1/2, y, z'
16 'x, y, z'
loop_
_atom_type_symbol
_atom_type_oxidation_number
Ca2+ 2
Na1+ 1
F1- -1
Fe2+ 2.11
As3- -3
loop_
_atom_site_label
_atom_site_type_symbol
_atom_site_symmetry_multiplicity
_atom_site_Wyckoff_symbol
_atom_site_fract_x
_atom_site_fract_y
_atom_site_fract_z
_atom_site_B_iso_or_equiv
_atom_site_occupancy
_atom_site_attached_hydrogens
Ca1 Ca2+ 2 c 0.25 0.25 0.1510(2) 0.0165(4) 0.89 0
Na1 Na1+ 2 c 0.25 0.25 0.1510(2) 0.0165(4) 0.11 0
F1 F1- 2 a 0.75 0.25 0 0.0228(12) 1. 0
Fe1 Fe2+ 2 b 0.75 0.25 0.5 0.0174(4) 1. 0
As1 As3- 2 c 0.25 0.25 0.6647(1) 0.0180(3) 1. 0
loop_
_atom_site_aniso_label
_atom_site_aniso_type_symbol
_atom_site_aniso_U_11
_atom_site_aniso_U_22
_atom_site_aniso_U_33
_atom_site_aniso_U_12
_atom_site_aniso_U_13
_atom_site_aniso_U_23
Ca1 Ca2+ 0.0134(4) 0.0134(4) 0.0261(25) 0 0 0
Na1 Na1+ 0.0134(4) 0.0134(4) 0.0253(6) 0 0 0
F1 F1- 0.0212(18) 0.0212(18) 0.0247(5) 0 0 0
Fe1 Fe2+ 0.0146(4) 0.0146(4) 0.0253(6) 0 0 0
As1 As3- 0.0146(4) 0.0146(4) 0.0247(5) 0 0 0
#End of TTdata_291423-ICSD