
#(C) 2019 by FIZ Karlsruhe - Leibniz Institute for Information Infrastructure.  All rights reserved.
data_291606-ICSD
_database_code_ICSD 291606
_audit_creation_date 2016-08-01
_chemical_name_systematic 'Sodium vanadyl(IV) phosphate(V)'
_chemical_formula_structural 'Na V O (P O4)'
_chemical_formula_sum 'Na1 O5 P1 V1'
_chemical_name_structure_type Sillimanite-Al2SiO5
_exptl_crystal_density_diffrn 3.35
_cell_measurement_temperature 300.
_publ_section_title

;
beta-Na V O P O4 obtained by a low-temperature synthesis process: a new 3.3 V
cathode for sodium-ion batteries
;
loop_
_citation_id
_citation_journal_full
_citation_year
_citation_journal_volume
_citation_page_first
_citation_page_last
_citation_journal_id_ASTM
primary 'Chemistry of Materials' 2016 28 1503 1512 CMATEX
loop_
_publ_author_name
'He, Guang'
'Huq, Ashfia'
'Kan, Wang Hay'
'Manthiram, Arumugam'
_cell_length_a 7.53903(3)
_cell_length_b 6.37400(1)
_cell_length_c 7.62114(2)
_cell_angle_alpha 90.
_cell_angle_beta 90.
_cell_angle_gamma 90.
_cell_volume 366.22
_cell_formula_units_Z 4
_symmetry_space_group_name_H-M 'P n m a'
_symmetry_Int_Tables_number 62
_refine_ls_R_factor_all 0.0681
loop_
_symmetry_equiv_pos_site_id
_symmetry_equiv_pos_as_xyz
1 'x+1/2, y, -z+1/2'
2 'x, -y+1/2, z'
3 '-x+1/2, y+1/2, z+1/2'
4 '-x, -y, -z'
5 '-x+1/2, -y, z+1/2'
6 '-x, y+1/2, -z'
7 'x+1/2, -y+1/2, -z+1/2'
8 'x, y, z'
loop_
_atom_type_symbol
_atom_type_oxidation_number
Na1+ 1
V4+ 4
P5+ 5
O2- -2
loop_
_atom_site_label
_atom_site_type_symbol
_atom_site_symmetry_multiplicity
_atom_site_Wyckoff_symbol
_atom_site_fract_x
_atom_site_fract_y
_atom_site_fract_z
_atom_site_B_iso_or_equiv
_atom_site_occupancy
_atom_site_attached_hydrogens
Na1 Na1+ 4 a 0 0 0 0.0122(2) 1. 0
V1 V4+ 4 c 0.17563(6) 0.25 0.28793(6) 0.0049(1) 1. 0
P1 P5+ 4 c 0.37641(6) 0.25 0.89347(5) 0.0046(1) 1. 0
O2 O2- 4 c 0.05167(6) 0.25 0.50731(6) 0.0084(1) 1. 0
O3 O2- 8 d 0.13626(5) 0.55693(4) 0.27199(4) 0.0069(1) 1. 0
O4 O2- 4 c 0.21768(6) 0.25 0.02287(6) 0.0073(1) 1. 0
O5 O2- 4 c 0.38744(7) 0.25 0.33127(5) 0.0081(1) 1. 0
#End of TTdata_291606-ICSD