
#(C) 2019 by FIZ Karlsruhe - Leibniz Institute for Information Infrastructure.  All rights reserved.
data_2937-ICSD
_database_code_ICSD 2937
_audit_creation_date 1980-01-01
_audit_update_record 2012-02-01
_chemical_name_systematic 'Sodium potassium alumosilicate *'
_chemical_formula_structural 'Na3 K ((Si0.558 Al0.442)8 O16)'
_chemical_formula_sum 'Al3.536 K1 Na3 O16 Si4.464'
_chemical_name_structure_type KNa3Al4(SiO4)4
_chemical_name_mineral Nepheline
_exptl_crystal_density_diffrn 2.68
_cell_measurement_temperature 281.
_publ_section_title
'Refinement of the nepheline structure at several temperatures'
loop_
_citation_id
_citation_journal_full
_citation_year
_citation_journal_volume
_citation_page_first
_citation_page_last
_citation_journal_id_ASTM
primary 'Zeitschrift fuer Kristallographie' 1970 132 45 70 ZEKRDZ
loop_
_publ_author_name
'Foreman, N.'
'Peacor, D.R.'
_cell_length_a 9.993(2)
_cell_length_b 9.993(2)
_cell_length_c 8.374(3)
_cell_angle_alpha 90.
_cell_angle_beta 90.
_cell_angle_gamma 120.
_cell_volume 724.19
_cell_formula_units_Z 2
_symmetry_space_group_name_H-M 'P 63'
_symmetry_Int_Tables_number 173
_refine_ls_R_factor_all 0.053
loop_
_symmetry_equiv_pos_site_id
_symmetry_equiv_pos_as_xyz
1 'x-y, x, z+1/2'
2 'y, -x+y, z+1/2'
3 '-x, -y, z+1/2'
4 '-x+y, -x, z'
5 '-y, x-y, z'
6 'x, y, z'
loop_
_atom_type_symbol
_atom_type_oxidation_number
Na1+ 1
K1+ 1
Si4+ 4
Al3+ 3
Si4+ 4
Al3+ 3
Si4+ 4
Al3+ 3
Si4+ 4
Al3+ 3
O2- -2
loop_
_atom_site_label
_atom_site_type_symbol
_atom_site_symmetry_multiplicity
_atom_site_Wyckoff_symbol
_atom_site_fract_x
_atom_site_fract_y
_atom_site_fract_z
_atom_site_B_iso_or_equiv
_atom_site_occupancy
_atom_site_attached_hydrogens
Na1 Na1+ 6 c 0.4425(3) 0.9968(3) 0.9930(17) 1.8 1. 0
K1 K1+ 2 a 0 0 0.9883(18) 3.6 1. 0
Si1 Si4+ 2 b 0.6667 0.3333 0.1879(16) 1.1 0.3 0
Al1 Al3+ 2 b 0.6667 0.3333 0.1879(16) 1.1 0.7 0
Si2 Si4+ 2 b 0.6667 0.3333 0.8008(15) 1.9 0.86 0
Al2 Al3+ 2 b 0.6667 0.3333 0.8008(15) 1.9 0.14 0
Si3 Si4+ 6 c 0.3343(4) 0.0934(3) 0.3095 1.1 0.92 0
Al3 Al3+ 6 c 0.3343(4) 0.0934(3) 0.3095 1.1 0.08 0
Si4 Si4+ 6 c 0.3322(4) 0.0930(4) 0.6831(4) 0.9 0.18 0
Al4 Al3+ 6 c 0.3322(4) 0.0930(4) 0.6831(4) 0.9 0.82 0
O1 O2- 6 c 0.7030(59) 0.334(16) 0.9870(82) 2.4 0.3333 0
O2 O2- 6 c 0.3185(8) 0.0283(7) 0.4877(25) 2.4 1. 0
O3 O2- 6 c 0.5210(12) 0.1746(12) 0.7370(21) 3.3 1. 0
O4 O2- 6 c 0.5134(11) 0.1599(12) 0.2453(17) 1.9 1. 0
O5 O2- 6 c 0.2888(8) 0.2268(9) 0.3121(20) 1.1 1. 0
O6 O2- 6 c 0.2639(10) 0.2240(11) 0.6890(21) 1.5 1. 0
#End of TTdata_2937-ICSD