
#(C) 2019 by FIZ Karlsruhe - Leibniz Institute for Information Infrastructure.  All rights reserved.
data_300175-ICSD
_database_code_ICSD 300175
_audit_creation_date 1991-07-10
_audit_update_record 1991-10-30
_chemical_name_systematic 'Pentasodium tetrathioindate(III)'
_chemical_formula_structural 'Na5 In S4'
_chemical_formula_sum 'In1 Na5 S4'
_exptl_crystal_density_diffrn 2.53
_cell_measurement_temperature 293.
_publ_section_title 'Crystal structure of pentasodium tetrathioindate(III)'
loop_
_citation_id
_citation_journal_full
_citation_year
_citation_journal_volume
_citation_page_first
_citation_page_last
_citation_journal_id_ASTM
primary 'Zeitschrift fuer Kristallographie' 1991 197 169 170 ZEKRDZ
loop_
_publ_author_name
'Eisenmann, B.'
'Hofmann, A.'
_cell_length_a 6.802(4)
_cell_length_b 8.835(5)
_cell_length_c 7.806(4)
_cell_angle_alpha 90.
_cell_angle_beta 90.606(60)
_cell_angle_gamma 90.
_cell_volume 469.08
_cell_formula_units_Z 2
_symmetry_space_group_name_H-M 'P 1 21/m 1'
_symmetry_Int_Tables_number 11
_refine_ls_R_factor_all 0.032
loop_
_symmetry_equiv_pos_site_id
_symmetry_equiv_pos_as_xyz
1 'x, -y+1/2, z'
2 '-x, -y, -z'
3 '-x, y+1/2, -z'
4 'x, y, z'
loop_
_atom_type_symbol
_atom_type_oxidation_number
Na1+ 1
In3+ 3
S2- -2
loop_
_atom_site_label
_atom_site_type_symbol
_atom_site_symmetry_multiplicity
_atom_site_Wyckoff_symbol
_atom_site_fract_x
_atom_site_fract_y
_atom_site_fract_z
_atom_site_B_iso_or_equiv
_atom_site_occupancy
_atom_site_attached_hydrogens
Na1 Na1+ 4 f 0.3432(3) 0.5202(2) 0.3344(2) . 1. 0
Na2 Na1+ 2 e 0.0251(4) 0.25 0.4751(4) . 1. 0
Na3 Na1+ 2 e 0.3284(5) 0.25 0.8388(4) . 1. 0
Na4 Na1+ 2 a 0 0 0 . 1. 0
In1 In3+ 2 e 0.6422(1) 0.25 0.1756(1) . 1. 0
S1 S2- 4 f 0.7681(1) 0.0206(1) 0.3265(1) . 1. 0
S2 S2- 2 e 0.2783(2) 0.25 0.1807(2) . 1. 0
S3 S2- 2 e 0.7643(2) 0.25 0.8787(2) . 1. 0
loop_
_atom_site_aniso_label
_atom_site_aniso_type_symbol
_atom_site_aniso_beta_11
_atom_site_aniso_beta_22
_atom_site_aniso_beta_33
_atom_site_aniso_beta_12
_atom_site_aniso_beta_13
_atom_site_aniso_beta_23
Na1 Na1+ 0.0389(10) 0.0226(9) 0.0220(8) 0.0012(7) 0.0022(7) 0.0049(8)
Na2 Na1+ 0.0245(14) 0.0462(19) 0.0409(17) 0 -.0038(12) 0
Na3 Na1+ 0.0412(16) 0.0240(13) 0.0272(14) 0 -.0017(12) 0
Na4 Na1+ 0.0298(14) 0.0397(17) 0.0367(15) 0.0080(14) 0.0072(12) 0.0138(13)
In1 In3+ 0.0144(2) 0.0150(2) 0.0153(2) 0 0.0000(1) 0
S1 S2- 0.0212(4) 0.0177(5) 0.0181(4) 0.0011(4) -.0002(3) 0.0009(4)
S2 S2- 0.0143(6) 0.0217(7) 0.0214(7) 0 0.0013(5) 0
S3 S2- 0.0228(6) 0.0173(6) 0.0145(6) 0 -.0001(5) 0
#End of TTdata_300175-ICSD