
#(C) 2019 by FIZ Karlsruhe - Leibniz Institute for Information Infrastructure.  All rights reserved.
data_30021-ICSD
_database_code_ICSD 30021
_audit_creation_date 1980-01-01
_audit_update_record 1985-05-23
_chemical_name_systematic 'Lithium sodium catena-vanadate (.3/.7/1)'
_chemical_formula_structural 'Na0.71 Li0.29 V O3'
_chemical_formula_sum 'Li0.29 Na0.71 O3 V1'
_chemical_name_structure_type NaKV2O6
_exptl_crystal_density_diffrn 2.94
_publ_section_title

;
Crystallographic studies and structural systematics of the C2/c alkali metal
metavanadates
;
loop_
_citation_id
_citation_journal_full
_citation_year
_citation_journal_volume
_citation_page_first
_citation_page_last
_citation_journal_id_ASTM
primary 'Journal of Solid State Chemistry' 1979 27 357 366 JSSCBI
loop_
_publ_author_name
'Ng, H.N.'
'Calvo, C.'
'Idler, K.L.'
_cell_length_a 10.349(5)
_cell_length_b 9.218(5)
_cell_length_c 5.862(4)
_cell_angle_alpha 90.
_cell_angle_beta 108.47(5)
_cell_angle_gamma 90.
_cell_volume 530.41
_cell_formula_units_Z 8
_symmetry_space_group_name_H-M 'C 1 2/c 1'
_symmetry_Int_Tables_number 15
_refine_ls_R_factor_all 0.037
loop_
_symmetry_equiv_pos_site_id
_symmetry_equiv_pos_as_xyz
1 'x, -y, z+1/2'
2 '-x, -y, -z'
3 '-x, y, -z+1/2'
4 'x, y, z'
5 'x+1/2, -y+1/2, z+1/2'
6 '-x+1/2, -y+1/2, -z'
7 '-x+1/2, y+1/2, -z+1/2'
8 'x+1/2, y+1/2, z'
loop_
_atom_type_symbol
_atom_type_oxidation_number
Li1+ 1
Na1+ 1
V5+ 5
O2- -2
loop_
_atom_site_label
_atom_site_type_symbol
_atom_site_symmetry_multiplicity
_atom_site_Wyckoff_symbol
_atom_site_fract_x
_atom_site_fract_y
_atom_site_fract_z
_atom_site_B_iso_or_equiv
_atom_site_occupancy
_atom_site_attached_hydrogens
Li1 Li1+ 4 e 0 0.9143(42) 0.25 . 0.58 0
Na1 Na1+ 4 e 0 0.2948(24) 0.25 . 1. 0
Na2 Na1+ 4 e 0 0.9143(42) 0.25 . 0.42 0
V1 V5+ 8 f 0.2905 0.0913 0.2523 . 1. 0
O1 O2- 8 f 0.1226(2) 0.0987(3) 0.1563(3) . 1. 0
O2 O2- 8 f 0.3525(3) 0.2558(3) 0.3093(4) . 1. 0
O3 O2- 8 f 0.3549(2) 0.0054(2) 0.0337(3) . 1. 0
loop_
_atom_site_aniso_label
_atom_site_aniso_type_symbol
_atom_site_aniso_U_11
_atom_site_aniso_U_22
_atom_site_aniso_U_33
_atom_site_aniso_U_12
_atom_site_aniso_U_13
_atom_site_aniso_U_23
Li1 Li1+ 0.0188(15) 0.0211(16) 0.0188(14) 0 0.006(1) 0
Na1 Na1+ 0.0279(10) 0.0173(9) 0.0240(9) 0 -.0014(7) 0
Na2 Na1+ 0.0279(10) 0.0173(9) 0.0240(9) 0 -.0014(7) 0
V1 V5+ 0.0140(2) 0.0143(2) 0.0081(2) 0.0006(3) 0.0033(1) -.0003(2)
O1 O2- 0.0168(9) 0.0286(11) 0.0189(8) 0.0057(11) 0.0040(7) 0.0017(10)
O2 O2- 0.0392(14) 0.0179(11) 0.0224(10) -.0054(10) 0.0074(10) -.0023(9)
O3 O2- 0.0174(9) 0.0269(11) 0.0118(8) -.0001(9) 0.0048(7) -.0044(8)
#End of TTdata_30021-ICSD