
#(C) 2019 by FIZ Karlsruhe - Leibniz Institute for Information Infrastructure.  All rights reserved.
data_30532-ICSD
_database_code_ICSD 30532
_audit_creation_date 1980-01-01
_audit_update_record 2012-08-01
_chemical_name_systematic
'Sodium di-mue-peroxo-bis(dihydroxoborate) hexahydrate'
_chemical_formula_structural 'Na2 (B2 (O2)2 (O H)4 ) (H2 O)6'
_chemical_formula_sum 'H16 B2 Na2 O14'
_exptl_crystal_density_diffrn 1.73
_publ_section_title

;
Refinement of the X-ray Crystal Structure of the Industrial Bleaching Agent
Disodium Tetrahydroxo-di-mue-peroxo-diborate Hexahydrate, Na2 (B2 (O2)2 (O H)4
) * (H2 O)6
;
loop_
_citation_id
_citation_journal_full
_citation_year
_citation_journal_volume
_citation_page_first
_citation_page_last
_citation_journal_id_ASTM
primary

;
Acta Crystallographica, Section B: Structural Crystallography and Crystal
Chemistry
; 1978 34 3551 3554 ACBCAR
loop_
_publ_author_name
'Carrondo, M.A.A.F.de.C.T.'
'Skapski, A.C.'
_cell_length_a 6.837(1)
_cell_length_b 7.370(1)
_cell_length_c 7.283(1)
_cell_angle_alpha 98.77(1)
_cell_angle_beta 101.85(1)
_cell_angle_gamma 120.33(1)
_cell_volume 295.4
_cell_formula_units_Z 1
_symmetry_space_group_name_H-M 'P -1'
_symmetry_Int_Tables_number 2
_refine_ls_R_factor_all 0.027
loop_
_symmetry_equiv_pos_site_id
_symmetry_equiv_pos_as_xyz
1 '-x, -y, -z'
2 'x, y, z'
loop_
_atom_type_symbol
_atom_type_oxidation_number
Na1+ 1
O2- -2
O1- -1
B3+ 3
H1+ 1
loop_
_atom_site_label
_atom_site_type_symbol
_atom_site_symmetry_multiplicity
_atom_site_Wyckoff_symbol
_atom_site_fract_x
_atom_site_fract_y
_atom_site_fract_z
_atom_site_B_iso_or_equiv
_atom_site_occupancy
_atom_site_attached_hydrogens
Na1 Na1+ 1 a 0 0 0 . 1. 0
Na2 Na1+ 1 d 0.5 0 0 . 1. 0
O1 O2- 2 i -.1966(2) 0.0087(2) 0.2547(2) . 1. 0
O2 O2- 2 i 0.2699(2) -.0465(2) 0.2088(2) . 1. 0
O3 O2- 2 i 0.6972(2) 0.3899(2) 0.1076(2) . 1. 0
O4 O2- 2 i 0.2777(2) 0.3854(2) 0.1795(1) . 1. 0
O5 O2- 2 i 0.1767(2) 0.6019(2) 0.3694(2) . 1. 0
O6 O1- 2 i 0.5766(2) 0.7083(1) 0.4645(1) . 1. 0
O7 O1- 2 i 0.2605(2) 0.3698(2) 0.5035(1) . 1. 0
B1 B3+ 2 i 0.3224(3) 0.5109(2) 0.3712(2) . 1. 0
H1 H1+ 2 i -.258(4) -.082(4) 0.309(4) 0.031(6) 1. 0
H2 H1+ 2 i -.071(5) 0.110(5) 0.333(4) 0.040(7) 1. 0
H3 H1+ 2 i 0.240(3) -.151(3) 0.247(3) 0.012(5) 1. 0
H4 H1+ 2 i 0.324(4) 0.057(4) 0.303(4) 0.022(6) 1. 0
H5 H1+ 2 i 0.633(5) 0.428(4) 0.163(4) 0.036(7) 1. 0
H6 H1+ 2 i 0.840(5) 0.452(4) 0.181(4) 0.037(7) 1. 0
H7 H1+ 2 i 0.287(4) 0.451(3) 0.112(3) 0.013(5) 1. 0
H8 H1+ 2 i 0.197(4) 0.665(3) 0.472(3) 0.016(5) 1. 0
loop_
_atom_site_aniso_label
_atom_site_aniso_type_symbol
_atom_site_aniso_U_11
_atom_site_aniso_U_22
_atom_site_aniso_U_33
_atom_site_aniso_U_12
_atom_site_aniso_U_13
_atom_site_aniso_U_23
Na1 Na1+ 0.0256(4) 0.0253(4) 0.0265(4) 0.0131(3) 0.0027(3) 0.0030(3)
Na2 Na1+ 0.0267(4) 0.0280(4) 0.0267(4) 0.0141(3) 0.0086(3) 0.0062(3)
O1 O2- 0.0251(6) 0.0391(6) 0.0369(6) 0.0070(5) 0.0038(5) 0.0185(6)
O2 O2- 0.0362(6) 0.0252(5) 0.0261(5) 0.0178(5) 0.0088(4) 0.0058(5)
O3 O2- 0.0371(6) 0.0325(6) 0.0307(6) 0.0196(5) 0.0125(5) 0.0078(4)
O4 O2- 0.0362(6) 0.0221(5) 0.0188(5) 0.0138(4) 0.0037(4) 0.0042(4)
O5 O2- 0.0337(6) 0.0327(6) 0.0296(6) 0.0210(5) 0.0083(4) 0.0086(5)
O6 O1- 0.0245(5) 0.0185(4) 0.0249(5) 0.0107(4) 0.0048(4) 0.0059(4)
O7 O1- 0.0234(5) 0.0250(5) 0.0262(5) 0.0126(4) 0.0076(4) 0.0100(4)
B1 B3+ 0.0228(7) 0.0182(7) 0.0201(7) 0.0082(6) 0.0048(6) 0.0054(6)
#End of TTdata_30532-ICSD