
#(C) 2019 by FIZ Karlsruhe - Leibniz Institute for Information Infrastructure.  All rights reserved.
data_30855-ICSD
_database_code_ICSD 30855
_audit_creation_date 1985-03-07
_audit_update_record 1985-05-24
_chemical_name_systematic 'Sodium tetracarbonylcobaltate(-I)'
_chemical_formula_structural 'Na Co (C O)4'
_chemical_formula_sum 'C4 Co1 Na1 O4'
_exptl_crystal_density_diffrn 1.84
_publ_section_title 'Die Kristallstrukturen von Li Co (C O)4 und Na Co (C O)4'
loop_
_citation_id
_citation_journal_full
_citation_year
_citation_journal_volume
_citation_page_first
_citation_page_last
_citation_journal_id_ASTM
primary 'Zeitschrift fuer Kristallographie' 1984 167 275 286 ZEKRDZ
loop_
_publ_author_name
'Kluefers, P.'
_cell_length_a 5.528(1)
_cell_length_b 13.741(3)
_cell_length_c 9.209(2)
_cell_angle_alpha 90.
_cell_angle_beta 90.
_cell_angle_gamma 90.
_cell_volume 699.52
_cell_formula_units_Z 4
_symmetry_space_group_name_H-M 'P b c m'
_symmetry_Int_Tables_number 57
_refine_ls_R_factor_all 0.053
loop_
_symmetry_equiv_pos_site_id
_symmetry_equiv_pos_as_xyz
1 'x, -y+1/2, z+1/2'
2 '-x, y+1/2, z'
3 'x, y, -z+1/2'
4 '-x, -y, -z'
5 '-x, y+1/2, -z+1/2'
6 'x, -y+1/2, -z'
7 '-x, -y, z+1/2'
8 'x, y, z'
loop_
_atom_type_symbol
_atom_type_oxidation_number
Na1+ 1
Co1- -1
C2+ 2
O2- -2
loop_
_atom_site_label
_atom_site_type_symbol
_atom_site_symmetry_multiplicity
_atom_site_Wyckoff_symbol
_atom_site_fract_x
_atom_site_fract_y
_atom_site_fract_z
_atom_site_B_iso_or_equiv
_atom_site_occupancy
_atom_site_attached_hydrogens
Na1 Na1+ 4 d 0.5782(2) 0.41283(8) 0.25 . 1. 0
Co1 Co1- 4 d 0.18875(6) 0.12454(2) 0.25 . 1. 0
C1 C2+ 8 e 0.3706(3) 0.1250(1) 0.0938(2) . 1. 0
C2 C2+ 4 d -.0304(6) 0.0339(2) 0.25 . 1. 0
C3 C2+ 4 d -.0079(5) 0.2290(2) 0.25 . 1. 0
O1 O2- 8 e 0.4887(3) 0.1264(1) -.0092(1) . 1. 0
O2 O2- 4 d -.1875(5) -.0217(2) 0.25 . 1. 0
O3 O2- 4 d -.1204(4) 0.2948(1) 0.25 . 1. 0
loop_
_atom_site_aniso_label
_atom_site_aniso_type_symbol
_atom_site_aniso_U_11
_atom_site_aniso_U_22
_atom_site_aniso_U_33
_atom_site_aniso_U_12
_atom_site_aniso_U_13
_atom_site_aniso_U_23
Na1 Na1+ 0.0475(6) 0.0642(6) 0.0510(6) 0.0158(6) 0 0
Co1 Co1- 0.0326(2) 0.0404(2) 0.0453(2) 0.0032(2) 0 0
C1 C2+ 0.054(1) 0.047(1) 0.052(1) 0.002(1) -.003(1) 0.002(1)
C2 C2+ 0.042(2) 0.050(2) 0.088(2) 0.005(2) 0 0
C3 C2+ 0.043(2) 0.049(2) 0.077(2) 0.001(2) 0 0
O1 O2- 0.101(1) 0.081(1) 0.058(1) 0.000(1) 0.031(1) 0.003(1)
O2 O2- 0.046(1) 0.066(2) 0.185(3) -.012(1) 0 0
O3 O2- 0.063(2) 0.059(1) 0.154(2) 0.026(1) 0 0
#End of TTdata_30855-ICSD