
#(C) 2019 by FIZ Karlsruhe - Leibniz Institute for Information Infrastructure.  All rights reserved.
data_30888-ICSD
_database_code_ICSD 30888
_audit_creation_date 1985-05-29
_audit_update_record 2012-08-01
_chemical_name_systematic 'Sodium amidosulfate'
_chemical_formula_structural 'Na N H2 S O3'
_chemical_formula_sum 'H2 N1 Na1 O3 S1'
_exptl_crystal_density_diffrn 2.21
_publ_section_title 'Crystal structure of anhydrous sodium sulphamate'
loop_
_citation_id
_citation_journal_full
_citation_year
_citation_journal_volume
_citation_page_first
_citation_page_last
_citation_journal_id_ASTM
primary 'Zeitschrift fuer Kristallographie' 1984 168 179 185 ZEKRDZ
loop_
_publ_author_name
'Manickkavachagam, R.'
'Rajaram, R.K.'
_cell_length_a 5.506(2)
_cell_length_b 12.449(3)
_cell_length_c 15.672(4)
_cell_angle_alpha 90.
_cell_angle_beta 90.
_cell_angle_gamma 90.
_cell_volume 1074.22
_cell_formula_units_Z 12
_symmetry_space_group_name_H-M 'P 21 21 21'
_symmetry_Int_Tables_number 19
_refine_ls_R_factor_all 0.0545
loop_
_symmetry_equiv_pos_site_id
_symmetry_equiv_pos_as_xyz
1 '-x, y+1/2, -z+1/2'
2 'x+1/2, -y+1/2, -z'
3 '-x+1/2, -y, z+1/2'
4 'x, y, z'
loop_
_atom_type_symbol
_atom_type_oxidation_number
Na1+ 1
S4+ 4
N1- -1
O2- -2
S4+ 4
N1- -1
O2- -2
S4+ 4
N1- -1
O2- -2
H1+ 1
loop_
_atom_site_label
_atom_site_type_symbol
_atom_site_symmetry_multiplicity
_atom_site_Wyckoff_symbol
_atom_site_fract_x
_atom_site_fract_y
_atom_site_fract_z
_atom_site_B_iso_or_equiv
_atom_site_occupancy
_atom_site_attached_hydrogens
Na1 Na1+ 4 a 0.0470(7) 0.0371(2) 0.7723(2) . 1. 0
Na2 Na1+ 4 a 0.0503(6) 0.2797(2) 0.2692(2) . 1. 0
Na3 Na1+ 4 a 0.0029(6) 0.2852(2) 0.8670(2) . 1. 0
S1 S4+ 4 a 0.0206(3) 0.3742(1) 0.0869(1) . 1. 0
N1 N1- 4 a 0.0000(13) 0.4964(4) 0.0489(4) . 1. 0
O1 O2- 4 a 0.2439(9) 0.3735(4) 0.1368(4) . 1. 0
O2 O2- 4 a -.1893(10) 0.3506(4) 0.1421(4) . 1. 0
O3 O2- 4 a 0.0301(12) 0.3043(4) 0.0136(3) . 1. 0
S2 S4+ 4 a 0.4503(4) 0.7130(1) 0.1336(1) . 1. 0
N2 N1- 4 a 0.5642(19) 0.7872(6) 0.0618(4) . 1. 0
O4 O2- 4 a 0.5112(11) 0.7738(4) 0.2154(3) . 1. 0
O5 O2- 4 a 0.5771(12) 0.6107(4) 0.1320(4) . 1. 0
O6 O2- 4 a 0.1872(12) 0.7011(5) 0.1276(4) . 1. 0
S3 S4+ 4 a 0.0149(4) 0.5438(1) 0.3493(1) . 1. 0
N3 N1- 4 a 0.9892(15) 0.5508(5) 0.4545(4) . 1. 0
O7 O2- 4 a 0.2707(11) 0.5565(5) 0.3247(3) . 1. 0
O8 O2- 4 a 0.8641(12) 0.6329(5) 0.3198(3) . 1. 0
O9 O2- 4 a -.0832(13) 0.4403(4) 0.3254(4) . 1. 0
H1 H1+ 4 a -.135(2) 0.504(7) 0.031(6) 0.039(30) 1. 0
H2 H1+ 4 a -.043(2) 0.555(1) 0.091(8) 0.124(5) 1. 0
H3 H1+ 4 a 0.608(3) 0.759(1) 0.998(9) 0.090(4) 1. 0
H4 H1+ 4 a 0.503(2) 0.851(1) 0.057(5) 0.024(2) 1. 0
H5 H1+ 4 a 0.011(2) 0.621(6) 0.472(5) 0.025(2) 1. 0
H6 H1+ 4 a 0.083(2) 0.502(5) 0.478(4) 0.009(2) 1. 0
loop_
_atom_site_aniso_label
_atom_site_aniso_type_symbol
_atom_site_aniso_U_11
_atom_site_aniso_U_22
_atom_site_aniso_U_33
_atom_site_aniso_U_12
_atom_site_aniso_U_13
_atom_site_aniso_U_23
Na1 Na1+ 0.0256(2) 0.0272(13) 0.0283(13) -.0013(1) -.0020(1) -.0024(1)
Na2 Na1+ 0.0256(2) 0.0271(13) 0.0274(13) -.0002(1) 0.0038(1) 0.0021(1)
Na3 Na1+ 0.0232(2) 0.0219(11) 0.0232(11) -.0028(1) -.0030(1) 0.0007(1)
S1 S4+ 0.0099(1) 0.0136(6) 0.0130(6) -.0001(5) 0.0001(7) 0.0010(6)
N1 N1- 0.0109(4) 0.0177(2) 0.0258(2) 0.0017(2) -.0021(3) 0.0051(2)
O1 O2- 0.0101(3) 0.0232(2) 0.0244(2) 0.0033(2) -.0073(2) 0.0007(2)
O2 O2- 0.0129(3) 0.0219(3) 0.0221(2) -.0009(2) 0.0033(2) -.0057(2)
O3 O2- 0.0285(3) 0.0219(2) 0.0184(2) -.0051(2) 0.0036(2) -.0027(3)
S2 S4+ 0.0193(1) 0.0170(1) 0.0140(6) -.0007(1) 0.0006(1) 0.0027(1)
N2 N1- 0.0658(6) 0.0384(4) 0.0228(3) 0.0173(3) 0.0116(4) -.0035(5)
O4 O2- 0.0199(3) 0.0244(2) 0.0207(2) -.0059(2) -.0078(2) 0.0009(3)
O5 O2- 0.0348(4) 0.0197(2) 0.0360(3) -.0057(2) 0.0015(3) 0.0115(2)
O6 O2- 0.0141(3) 0.0431(3) 0.0358(3) -.0206(3) -.0032(3) -.0014(3)
S3 S4+ 0.0160(1) 0.0125(1) 0.0163(1) -.0027(5) -.0004(1) 0.0001(1)
N3 N1- 0.0287(4) 0.0321(3) 0.0158(2) 0.0019(2) -.0053(3) 0.0020(3)
O7 O2- 0.0171(3) 0.0391(3) 0.0220(3) 0.0013(2) 0.0056(2) 0.0001(3)
O8 O2- 0.0337(4) 0.0278(3) 0.0235(3) 0.0074(2) -.0006(3) 0.0130(3)
O9 O2- 0.0371(4) 0.0246(3) 0.0400(3) -.0156(2) -.0023(3) -.0064
#End of TTdata_30888-ICSD