
#(C) 2019 by FIZ Karlsruhe - Leibniz Institute for Information Infrastructure.  All rights reserved.
data_30933-ICSD
_database_code_ICSD 30933
_audit_creation_date 1986-12-03
_audit_update_record 1997-11-10
_chemical_name_systematic 'Calcium potassium alumosilicate *'
_chemical_formula_structural 'Ca.85 Na.14 Al1.86 Si2.14 O8'
_chemical_formula_sum 'Al1.86 Ca0.85 Na0.14 O8 Si2.14'
_chemical_name_structure_type Feldspar#-(TC,I1-,i28)-Bytownite
_chemical_name_mineral Bytownite
_exptl_crystal_density_diffrn 2.73
_publ_section_title 'The structure of bytownite (An85). A new refinement'
loop_
_citation_id
_citation_journal_full
_citation_year
_citation_journal_volume
_citation_page_first
_citation_page_last
_citation_journal_id_ASTM
primary 'Zeitschrift fuer Kristallographie' 1984 169 35 49 ZEKRDZ
loop_
_publ_author_name
'Chiari, G.'
'Benna, P.'
'Bruno, E.'
_cell_length_a 8.188(1)
_cell_length_b 12.882(2)
_cell_length_c 14.196(2)
_cell_angle_alpha 93.37(2)
_cell_angle_beta 116.04(2)
_cell_angle_gamma 90.87(1)
_cell_volume 1341.63
_cell_formula_units_Z 8
_symmetry_space_group_name_H-M 'I -1'
_symmetry_Int_Tables_number 2
_refine_ls_R_factor_all 0.034
loop_
_symmetry_equiv_pos_site_id
_symmetry_equiv_pos_as_xyz
1 '-x, -y, -z'
2 'x, y, z'
3 '-x+1/2, -y+1/2, -z+1/2'
4 'x+1/2, y+1/2, z+1/2'
loop_
_atom_type_symbol
_atom_type_oxidation_number
Ca2+ 2
Na1+ 1
Ca2+ 2
Na1+ 1
Ca2+ 2
Na1+ 1
Ca2+ 2
Na1+ 1
Si4+ 4
Al3+ 3
Si4+ 4
Al3+ 3
Si4+ 4
Al3+ 3
Si4+ 4
Al3+ 3
Si4+ 4
Al3+ 3
Si4+ 4
Al3+ 3
O2- -2
loop_
_atom_site_label
_atom_site_type_symbol
_atom_site_symmetry_multiplicity
_atom_site_Wyckoff_symbol
_atom_site_fract_x
_atom_site_fract_y
_atom_site_fract_z
_atom_site_B_iso_or_equiv
_atom_site_occupancy
_atom_site_attached_hydrogens
Ca1 Ca2+ 4 i 0.2669(1) 0.9838(1) 0.0876(1) . 0.425 0
Na1 Na1+ 4 i 0.2669(1) 0.9838(1) 0.0876(1) . 0.07 0
Ca2 Ca2+ 4 i 0.7741(2) 0.5336(1) 0.5460(1) . 0.425 0
Na2 Na1+ 4 i 0.7741(2) 0.5336(1) 0.5460(1) . 0.07 0
Ca3 Ca2+ 4 i 0.2679(4) 0.0310(2) 0.5435(2) . 0.425 0
Na3 Na1+ 4 i 0.2679(4) 0.0310(2) 0.5435(2) . 0.07 0
Ca4 Ca2+ 4 i 0.7650(4) 0.5146(2) 0.0642(2) . 0.425 0
Na4 Na1+ 4 i 0.7650(4) 0.5146(2) 0.0642(2) . 0.07 0
Si1 Si4+ 4 i 0.0074(1) 0.1585(1) 0.1042(1) . 0.95 0
Al1 Al3+ 4 i 0.0074(1) 0.1585(1) 0.1042(1) . 0.05 0
Al2 Al3+ 4 i 0.0027(1) 0.1648(1) 0.6114(1) . 1. 0
Si3 Si4+ 4 i -.0004(1) 0.8154(1) 0.1189(1) . 0.13 0
Al3 Al3+ 4 i -.0004(1) 0.8154(1) 0.1189(1) . 0.87 0
Si4 Si4+ 4 i 0.0054(1) 0.8175(1) 0.6124(1) . 1. 0
Si5 Si4+ 4 i 0.6877(1) 0.1119(1) 0.1574(1) . 0.19 0
Al5 Al3+ 4 i 0.6877(1) 0.1119(1) 0.1574(1) . 0.81 0
Si6 Si4+ 4 i 0.6776(1) 0.1058(1) 0.6590(1) . 0.98 0
Al6 Al3+ 4 i 0.6776(1) 0.1058(1) 0.6590(1) . 0.02 0
Si7 Si4+ 4 i 0.6770(1) 0.8817(1) 0.1820(1) . 0.95 0
Al7 Al3+ 4 i 0.6770(1) 0.8817(1) 0.1820(1) . 0.05 0
Si8 Si4+ 4 i 0.6832(1) 0.8752(1) 0.6759(1) . 0.09 0
Al8 Al3+ 4 i 0.6832(1) 0.8752(1) 0.6759(1) . 0.91 0
O1 O2- 4 i 0.0098(2) 0.1259(1) 0.9916(1) . 1. 0
O2 O2- 4 i -.0078(2) 0.1259(1) 0.4876(1) . 1. 0
O3 O2- 4 i 0.5771(2) 0.9904(1) 0.1401(1) . 1. 0
O4 O2- 4 i 0.5730(2) 0.9915(1) 0.6373(1) . 1. 0
O5 O2- 4 i 0.8191(2) 0.1010(1) 0.0897(1) . 1. 0
O6 O2- 4 i 0.8019(2) 0.1015(1) 0.5960(1) . 1. 0
O7 O2- 4 i 0.8107(3) 0.8550(1) 0.1294(2) . 1. 0
O8 O2- 4 i 0.8193(2) 0.8554(1) 0.6122(2) . 1. 0
O9 O2- 4 i 0.0126(2) 0.2800(1) 0.1357(1) . 1. 0
O10 O2- 4 i 0.0142(2) 0.2948(1) 0.6479(1) . 1. 0
O11 O2- 4 i 0.0087(2) 0.6807(1) 0.1083(1) . 1. 0
O12 O2- 4 i 0.0084(2) 0.6919(1) 0.6001(1) . 1. 0
O13 O2- 4 i 0.1894(2) 0.1063(1) 0.1881(1) . 1. 0
O14 O2- 4 i 0.2041(2) 0.1040(1) 0.6903(1) . 1. 0
O15 O2- 4 i 0.2000(2) 0.8690(1) 0.2177(1) . 1. 0
O16 O2- 4 i 0.1833(3) 0.8620(1) 0.7128(1) . 1. 0
loop_
_atom_site_aniso_label
_atom_site_aniso_type_symbol
_atom_site_aniso_U_11
_atom_site_aniso_U_22
_atom_site_aniso_U_33
_atom_site_aniso_U_12
_atom_site_aniso_U_13
_atom_site_aniso_U_23
Ca1 Ca2+ 0.011(1) 0.034(1) 0.015(1) -.009(1) 0.007(1) -.005(1)
Na1 Na1+ 0.011(1) 0.034(1) 0.015(1) -.009(1) 0.007(1) -.005(1)
Ca2 Ca2+ 0.014(1) 0.030(1) 0.024(1) -.009(1) 0.004(1) 0.005(1)
Na2 Na1+ 0.014(1) 0.030(1) 0.024(1) -.009(1) 0.004(1) 0.005(1)
Ca3 Ca2+ 0.009(1) 0.009(1) 0.005(1) 0.004(1) 0.003(1) 0.004(1)
Na3 Na1+ 0.009(1) 0.009(1) 0.005(1) 0.004(1) 0.003(1) 0.004(1)
Ca4 Ca2+ 0.007(1) 0.064(2) 0.041(1) -.038(1) 0.001(1) 0.005(1)
Na4 Na1+ 0.007(1) 0.064(2) 0.041(1) -.038(1) 0.001(1) 0.005(1)
Si1 Si4+ 0.009(1) 0.010(1) 0.008(1) 0.001(1) 0.004(1) -.001(1)
Al1 Al3+ 0.009(1) 0.010(1) 0.008(1) 0.001(1) 0.004(1) -.001(1)
Al2 Al3+ 0.009(1) 0.009(1) 0.008(1) 0.001(1) 0.004(1) -.001(1)
Si3 Si4+ 0.010(1) 0.009(1) 0.007(1) 0.001(1) 0.004(1) 0.002(1)
Al3 Al3+ 0.010(1) 0.009(1) 0.007(1) 0.001(1) 0.004(1) 0.002(1)
Si4 Si4+ 0.010(1) 0.011(1) 0.007(1) 0.001(1) 0.004(1) 0.003(1)
Si5 Si4+ 0.008(1) 0.008(1) 0.012(1) 0.001(1) 0.004(1) 0.000(1)
Al5 Al3+ 0.008(1) 0.008(1) 0.012(1) 0.001(1) 0.004(1) 0.000(1)
Si6 Si4+ 0.009(1) 0.008(1) 0.014(1) 0.000(1) 0.004(1) 0.000(1)
Al6 Al3+ 0.009(1) 0.008(1) 0.014(1) 0.000(1) 0.004(1) 0.000(1)
Si7 Si4+ 0.009(1) 0.008(1) 0.013(1) 0.003(1) 0.004(1) 0.002(1)
Al7 Al3+ 0.009(1) 0.008(1) 0.013(1) 0.003(1) 0.004(1) 0.002(1)
Si8 Si4+ 0.009(1) 0.009(1) 0.011(1) 0.003(1) 0.005(1) 0.001(1)
Al8 Al3+ 0.009(1) 0.009(1) 0.011(1) 0.003(1) 0.005(1) 0.001(1)
O1 O2- 0.028(1) 0.018(1) 0.010(1) 0.002(1) 0.011(1) 0.000(1)
O2 O2- 0.030(1) 0.017(1) 0.013(1) 0.003(1) 0.014(1) 0.004(1)
O3 O2- 0.011(1) 0.011(1) 0.015(1) 0.004(1) 0.005(1) 0.003(1)
O4 O2- 0.010(1) 0.010(1) 0.016(1) 0.002(1) 0.004(1) 0.000(1)
O5 O2- 0.015(1) 0.015(1) 0.029(1) -.004(1) 0.014(1) -.005(1)
O6 O2- 0.017(1) 0.015(1) 0.032(1) -.002(1) 0.016(1) -.003(1)
O7 O2- 0.020(1) 0.021(1) 0.054(1) -.005(1) 0.024(1) 0.002(1)
O8 O2- 0.019(1) 0.022(1) 0.038(1) 0.002(1) 0.020(1) 0.005(1)
O9 O2- 0.016(1) 0.012(1) 0.020(1) -.001(1) 0.009(1) -.002(1)
O10 O2- 0.016(1) 0.013(1) 0.018(1) 0.000(1) 0.007(1) -.003(1)
O11 O2- 0.013(1) 0.013(1) 0.015(1) 0.000(1) 0.004(1) 0.004(1)
O12 O2- 0.018(1) 0.013(1) 0.015(1) 0.000(1) 0.004(1) 0.004(1)
O13 O2- 0.015(1) 0.017(1) 0.014(1) 0.002(1) 0.000(1) 0.003(1)
O14 O2- 0.018(1) 0.014(1) 0.016(1) 0.002(1) -.002(1) 0.002(1)
O15 O2- 0.016(1) 0.020(1) 0.021(1) -.006(1) -.005(1) 0.002(1)
O16 O2- 0.023(1) 0.023(1) 0.022(1) -.007(1) -.008(1) 0.004(1)
#End of TTdata_30933-ICSD