
#(C) 2019 by FIZ Karlsruhe - Leibniz Institute for Information Infrastructure.  All rights reserved.
data_30932-ICSD
_database_code_ICSD 30932
_audit_creation_date 1986-04-14
_audit_update_record 1997-11-10
_chemical_name_systematic 'Calcium potassium alumosilicate *'
_chemical_formula_structural 'Ca.85 Na.14 Al1.94 Si2.06 O8'
_chemical_formula_sum 'Al1.94 Ca0.85 Na0.14 O8 Si2.06'
_chemical_name_structure_type Feldspar#-(TC,P1-,i52)-Anorthite
_chemical_name_mineral Bytownite
_exptl_crystal_density_diffrn 2.73
_publ_section_title 'The structure of bytownite (An85). A new refinement'
loop_
_citation_id
_citation_journal_full
_citation_year
_citation_journal_volume
_citation_page_first
_citation_page_last
_citation_journal_id_ASTM
primary 'Zeitschrift fuer Kristallographie' 1984 169 35 49 ZEKRDZ
loop_
_publ_author_name
'Chiari, G.'
'Benna, P.'
'Bruno, E.'
_cell_length_a 8.188(1)
_cell_length_b 12.882(2)
_cell_length_c 14.196(2)
_cell_angle_alpha 93.37(2)
_cell_angle_beta 116.04(2)
_cell_angle_gamma 90.87(1)
_cell_volume 1341.63
_cell_formula_units_Z 8
_symmetry_space_group_name_H-M 'P -1'
_symmetry_Int_Tables_number 2
_refine_ls_R_factor_all 0.038
loop_
_symmetry_equiv_pos_site_id
_symmetry_equiv_pos_as_xyz
1 '-x, -y, -z'
2 'x, y, z'
loop_
_atom_type_symbol
_atom_type_oxidation_number
Ca2+ 2
Na1+ 1
Ca2+ 2
Na1+ 1
Ca2+ 2
Na1+ 1
Ca2+ 2
Na1+ 1
Si4+ 4
Al3+ 3
Si4+ 4
Al3+ 3
Si4+ 4
Al3+ 3
Si4+ 4
Al3+ 3
Si4+ 4
Al3+ 3
Si4+ 4
Al3+ 3
Si4+ 4
Al3+ 3
Si4+ 4
Al3+ 3
Si4+ 4
Al3+ 3
Si4+ 4
Al3+ 3
Si4+ 4
Al3+ 3
Si4+ 4
Al3+ 3
Si4+ 4
Al3+ 3
O2- -2
loop_
_atom_site_label
_atom_site_type_symbol
_atom_site_symmetry_multiplicity
_atom_site_Wyckoff_symbol
_atom_site_fract_x
_atom_site_fract_y
_atom_site_fract_z
_atom_site_B_iso_or_equiv
_atom_site_occupancy
_atom_site_attached_hydrogens
Ca1 Ca2+ 2 i 0.2669(2) 0.9838(2) 0.0876(1) 0.020(1) 0.848 0
Na1 Na1+ 2 i 0.2669(2) 0.9838(2) 0.0876(1) 0.020(1) 0.144 0
Ca2 Ca2+ 2 i 0.7742(2) 0.5336(1) 0.5460(1) 0.024(1) 0.848 0
Na2 Na1+ 2 i 0.7742(2) 0.5336(1) 0.5460(1) 0.024(1) 0.144 0
Ca3 Ca2+ 2 i 0.2680(4) 0.0310(2) 0.5436(2) 0.008(1) 0.848 0
Na3 Na1+ 2 i 0.2680(4) 0.0310(2) 0.5436(2) 0.008(1) 0.144 0
Ca4 Ca2+ 2 i 0.7648(4) 0.5146(3) 0.0641(2) 0.042(1) 0.848 0
Na4 Na1+ 2 i 0.7648(4) 0.5146(3) 0.0641(2) 0.042(1) 0.144 0
Si1 Si4+ 2 i 0.0030(5) 0.1624(3) 0.1035(3) 0.014(1) 0.9 0
Al1 Al3+ 2 i 0.0030(5) 0.1624(3) 0.1035(3) 0.014(1) 0.1 0
Si2 Si4+ 2 i 0.5107(1) 0.6555(1) 0.6046(1) 0.003(1) 0.96 0
Al2 Al3+ 2 i 0.5107(1) 0.6555(1) 0.6046(1) 0.003(1) 0.04 0
Si3 Si4+ 2 i 0.0063(5) 0.1614(3) 0.6110(3) 0.008(1) 0.02 0
Al3 Al3+ 2 i 0.0063(5) 0.1614(3) 0.6110(3) 0.008(1) 0.98 0
Al4 Al3+ 2 i 0.4992(5) 0.6681(3) 0.1118(3) 0.006(1) 1. 0
Al5 Al3+ 2 i 0.9929(5) 0.8119(3) 0.1178(3) 0.009(1) 1. 0
Si6 Si4+ 2 i 0.5057(4) 0.3187(3) 0.6199(3) 0.005(1) 0.22 0
Al6 Al3+ 2 i 0.5057(4) 0.3187(3) 0.6199(3) 0.005(1) 0.78 0
Si7 Si4+ 2 i 0.0114(2) 0.8217(1) 0.6133(1) 0.007(1) 1. 0
Si8 Si4+ 2 i 0.4992(2) 0.3132(1) 0.1114(1) 0.008(1) 0.9 0
Al8 Al3+ 2 i 0.4992(2) 0.3132(1) 0.1114(1) 0.008(1) 0.1 0
Si9 Si4+ 2 i 0.6876(4) 0.1109(2) 0.1524(2) 0.007(1) 0.18 0
Al9 Al3+ 2 i 0.6876(4) 0.1109(2) 0.1524(2) 0.007(1) 0.82 0
Si10 Si4+ 2 i 0.1877(4) 0.6128(2) 0.6625(2) 0.008(1) 0.11 0
Al10 Al3+ 2 i 0.1877(4) 0.6128(2) 0.6625(2) 0.008(1) 0.89 0
Si11 Si4+ 2 i 0.6790(4) 0.1053(2) 0.6645(2) 0.008(1) 0.92 0
Al11 Al3+ 2 i 0.6790(4) 0.1053(2) 0.6645(2) 0.008(1) 0.08 0
Si12 Si4+ 2 i 0.1762(4) 0.6064(2) 0.1532(2) 0.009(1) 0.98 0
Al12 Al3+ 2 i 0.1762(4) 0.6064(2) 0.1532(2) 0.009(1) 0.02 0
Si13 Si4+ 2 i 0.6769(2) 0.8831(1) 0.1875(1) 0.009(1) 0.93 0
Al13 Al3+ 2 i 0.6769(2) 0.8831(1) 0.1875(1) 0.009(1) 0.07 0
Si14 Si4+ 2 i 0.1771(2) 0.3803(1) 0.6767(1) 0.007(1) 0.95 0
Al14 Al3+ 2 i 0.1771(2) 0.3803(1) 0.6767(1) 0.007(1) 0.05 0
Si15 Si4+ 2 i 0.6801(5) 0.8727(3) 0.6714(3) 0.008(1) 0.12 0
Al15 Al3+ 2 i 0.6801(5) 0.8727(3) 0.6714(3) 0.008(1) 0.88 0
Si16 Si4+ 2 i 0.1862(5) 0.3777(3) 0.1804(3) 0.007(1) 0.06 0
Al16 Al3+ 2 i 0.1862(5) 0.3777(3) 0.1804(3) 0.007(1) 0.94 0
O1 O2- 2 i 0.0250(4) 0.1250(2) 0.9950(2) 0.011(1) 1. 0
O2 O2- 2 i 0.4935(5) 0.6270(3) 0.4881(3) 0.014(1) 1. 0
O3 O2- 2 i 0.9756(4) 0.1237(3) 0.4830(3) 0.012(1) 1. 0
O4 O2- 2 i 0.5086(4) 0.6281(3) 0.9922(3) 0.013(1) 1. 0
O5 O2- 2 i 0.5774(4) 0.9924(2) 0.1455(2) 0.008(1) 1. 0
O6 O2- 2 i 0.0768(4) 0.4883(3) 0.6341(3) 0.013(1) 1. 0
O7 O2- 2 i 0.5736(4) 0.9901(3) 0.6311(3) 0.013(1) 1. 0
O8 O2- 2 i 0.0727(4) 0.4928(2) 0.1425(2) 0.007(1) 1. 0
O9 O2- 2 i 0.8103(4) 0.1041(3) 0.0804(3) 0.013(1) 1. 0
O10 O2- 2 i 0.3279(4) 0.5980(3) 0.5988(3) 0.012(1) 1. 0
O11 O2- 2 i 0.8110(6) 0.0995(4) 0.6057(4) 0.010(1) 1. 0
O12 O2- 2 i 0.2918(7) 0.6039(4) 0.0852(4) 0.015(1) 1. 0
O13 O2- 2 i 0.8206(5) 0.8522(3) 0.1426(3) 0.014(1) 1. 0
O14 O2- 2 i 0.3003(5) 0.3579(3) 0.6156(3) 0.018(1) 1. 0
O15 O2- 2 i 0.8095(4) 0.8545(3) 0.6023(3) 0.012(1) 1. 0
O16 O2- 2 i 0.3309(5) 0.3566(3) 0.1239(3) 0.020(1) 1. 0
O17 O2- 2 i 0.0057(4) 0.2819(2) 0.1298(2) 0.010(1) 1. 0
O18 O2- 2 i 0.5204(5) 0.7781(3) 0.6423(3) 0.017(1) 1. 0
O19 O2- 2 i 0.0189(5) 0.2927(3) 0.6455(3) 0.016(1) 1. 0
O20 O2- 2 i 0.5098(11) 0.7969(7) 0.1503(7) 0.013(2) 1. 0
O21 O2- 2 i 0.0024(4) 0.6773(3) 0.1110(3) 0.013(1) 1. 0
O22 O2- 2 i 0.5148(4) 0.1841(2) 0.6054(2) 0.011(1) 1. 0
O23 O2- 2 i 0.0183(5) 0.6955(3) 0.5976(3) 0.014(1) 1. 0
O24 O2- 2 i 0.4992(4) 0.1886(2) 0.1023(2) 0.010(1) 1. 0
O25 O2- 2 i 0.1811(4) 0.1053(3) 0.1922(3) 0.013(1) 1. 0
O26 O2- 2 i 0.6979(5) 0.6075(3) 0.6839(3) 0.014(1) 1. 0
O27 O2- 2 i 0.2142(4) 0.1044(2) 0.6852(2) 0.010(1) 1. 0
O28 O2- 2 i 0.6930(5) 0.6035(3) 0.1959(3) 0.015(1) 1. 0
O29 O2- 2 i 0.2079(4) 0.8722(2) 0.2108(2) 0.011(1) 1. 0
O30 O2- 2 i 0.6908(5) 0.3653(3) 0.7254(3) 0.018(1) 1. 0
O31 O2- 2 i 0.1721(4) 0.8581(3) 0.7197(3) 0.012(1) 1. 0
O32 O2- 2 i 0.6966(5) 0.3662(3) 0.2051(3) 0.019(1) 1. 0
#End of TTdata_30932-ICSD