
#(C) 2019 by FIZ Karlsruhe - Leibniz Institute for Information Infrastructure.  All rights reserved.
data_30951-ICSD
_database_code_ICSD 30951
_audit_creation_date 1986-12-08
_audit_update_record 2007-08-01
_chemical_name_systematic 'Sodium potassium alumosilicate *'
_chemical_formula_structural 'Na0.283 K0.717 (Al Si O4)'
_chemical_formula_sum 'Al1 K0.717 Na0.283 O4 Si1'
_chemical_name_mineral Panunzite
_exptl_crystal_density_diffrn 2.62
_publ_section_title
'The crystal structure of panunzite (natural tetrakalsilite)'
loop_
_citation_id
_citation_journal_full
_citation_year
_citation_journal_volume
_citation_page_first
_citation_page_last
_citation_journal_id_ASTM
primary 'Neues Jahrbuch fuer Mineralogie, Monatshefte' 1985 1985 322 328 NJMMAW
loop_
_publ_author_name
'Merlino, S.'
'Franco, E.'
'Mattia, C.A.'
'Pasero, M.'
'de Gennaro, M.'
_cell_length_a 20.4960(50)
_cell_length_b 20.4960(50)
_cell_length_c 8.549(3)
_cell_angle_alpha 90.
_cell_angle_beta 90.
_cell_angle_gamma 120.
_cell_volume 3110.17
_cell_formula_units_Z 32
_symmetry_space_group_name_H-M 'P 63'
_symmetry_Int_Tables_number 173
_refine_ls_R_factor_all 0.078
loop_
_symmetry_equiv_pos_site_id
_symmetry_equiv_pos_as_xyz
1 'x-y, x, z+1/2'
2 'y, -x+y, z+1/2'
3 '-x, -y, z+1/2'
4 '-x+y, -x, z'
5 '-y, x-y, z'
6 'x, y, z'
loop_
_atom_type_symbol
_atom_type_oxidation_number
Na1+ 1
K1+ 1
Na1+ 1
K1+ 1
Na1+ 1
K1+ 1
Na1+ 1
K1+ 1
Al3+ 3
Si4+ 4
O2- -2
loop_
_atom_site_label
_atom_site_type_symbol
_atom_site_symmetry_multiplicity
_atom_site_Wyckoff_symbol
_atom_site_fract_x
_atom_site_fract_y
_atom_site_fract_z
_atom_site_B_iso_or_equiv
_atom_site_occupancy
_atom_site_attached_hydrogens
Na1 Na1+ 6 c -.0196(4) 0.2578(4) 0.7377(9) 1.19(11) 1. 0
K1 K1+ 6 c 0.5028(3) 0.2698(2) 0.2405(5) 1.21(71) 0.88 0
Na2 Na1+ 6 c 0.5028(3) 0.2698(2) 0.2405(5) 1.21(71) 0.12 0
K2 K1+ 6 c -.0041(3) 0.4759(3) 0.2395(6) 0.98(7) 0.78 0
Na3 Na1+ 6 c -.0041(3) 0.4759(3) 0.2395(6) 0.98(7) 0.22 0
K3 K1+ 6 c 0.2388(2) 0.4965(2) 0.2453(5) 1.36(6) 1. 0
K4 K1+ 6 c 0.2423(3) 0.0286(3) 0.2451(6) 1.62(8) 0.83 0
Na4 Na1+ 6 c 0.2423(3) 0.0286(3) 0.2451(6) 1.62(8) 0.17 0
K5 K1+ 2 a 0 0 0.75 1.56(10) 1. 0
Al1 Al3+ 6 c 0.0376(3) 0.1598(3) 0.5666(6) 0.66(8) 1. 0
Al2 Al3+ 6 c 0.3282(3) 0.1903(3) 0.5593(6) 0.59(7) 1. 0
Al3 Al3+ 6 c 0.3041(3) 0.4052(3) 0.5583(6) 0.55(8) 1. 0
Al4 Al3+ 6 c 0.5899(3) 0.4272(3) 0.5567(6) 0.69(7) 1. 0
Al5 Al3+ 6 c 0.0673(3) 0.4212(3) 0.5569(7) 0.58(8) 1. 0
Al6 Al3+ 2 b 0.3333 0.6667 0.5541(10) 0.42(11) 1. 0
Si1 Si4+ 6 c 0.1593(2) 0.1223(2) 0.4318(5) 0.56(7) 1. 0
Si2 Si4+ 6 c 0.1380(3) 0.3281(3) 0.4394(6) 0.69(7) 1. 0
Si3 Si4+ 6 c 0.4046(3) 0.1015(3) 0.4380(6) 0.77(7) 1. 0
Si4 Si4+ 6 c 0.1629(3) 0.5892(3) 0.4427(5) 0.56(6) 1. 0
Si5 Si4+ 6 c 0.4208(3) 0.3529(3) 0.4359(6) 0.75(7) 1. 0
Si6 Si4+ 2 b 0.6667 0.3333 0.4475(9) 0.55(11) 1. 0
O1 O2- 6 c 0.1436(6) 0.1403(6) 0.2534(14) 0.75(17) 1. 0
O2 O2- 6 c 0.1198(7) 0.3173(7) 0.2532(16) 1.59(22) 1. 0
O3 O2- 6 c 0.4013(8) 0.1187(7) 0.2518(17) 1.82(23) 1. 0
O4 O2- 6 c 0.1510(8) 0.5755(7) 0.2528(17) 1.77(23) 1. 0
O5 O2- 6 c 0.4004(7) 0.3518(7) 0.2548(17) 1.65(23) 1. 0
O6 O2- 2 b 0.6667 0.3333 0.2530(26) 1.57(34) 1. 0
O7 O2- 6 c 0.1340(5) 0.4048(5) 0.4956(12) 0.27(15) 1. 0
O8 O2- 6 c 0.1082(7) 0.1352(7) 0.5542(15) 1.06(20) 1. 0
O9 O2- 6 c 0.3432(7) 0.1140(6) 0.5284(15) 1.04(19) 1. 0
O10 O2- 6 c 0.4067(7) 0.2715(7) 0.4830(17) 1.73(23) 1. 0
O11 O2- 6 c -.0140(6) 0.3600(7) 0.4458(14) 0.95(19) 1. 0
O12 O2- 6 c 0.4892(6) 0.1572(6) 0.4930(13) 0.46(16) 1. 0
O13 O2- 6 c 0.1385(8) 0.0328(8) 0.4365(17) 1.93(24) 1. 0
O14 O2- 6 c 0.3355(8) 0.4962(8) 0.4771(17) 1.82(23) 1. 0
O15 O2- 6 c 0.3710(8) 0.3787(8) 0.5364(18) 2.04(25) 1. 0
O16 O2- 6 c 0.2439(8) 0.6030(8) 0.4841(19) 1.98(25) 1. 0
O17 O2- 6 c 0.0957(6) 0.5125(6) 0.5138(13) 0.51(17) 1. 0
O18 O2- 6 c 0.2501(8) 0.1814(8) 0.4557(19) 2.20(26) 1. 0
O19 O2- 6 c 0.5104(7) 0.4161(7) 0.4465(15) 1.21(20) 1. 0
O20 O2- 6 c 0.5998(6) 0.3495(6) 0.5035(14) 0.59(17) 1. 0
O21 O2- 6 c 0.0735(6) 0.2545(6) 0.5236(13) 0.61(17) 1. 0
O22 O2- 6 c 0.2226(7) 0.3385(7) 0.4578(15) 1.12(20) 1. 0
#End of TTdata_30951-ICSD