
#(C) 2019 by FIZ Karlsruhe - Leibniz Institute for Information Infrastructure.  All rights reserved.
data_31184-ICSD
_database_code_ICSD 31184
_audit_creation_date 1982-12-31
_audit_update_record 2003-04-01
_chemical_name_systematic 'Sodium potassium tecto-alumotrisilicate *'
_chemical_formula_structural '(Na0.85 K0.14) (Al Si3 O8)'
_chemical_formula_sum 'Al1 K0.14 Na0.85 O8 Si3'
_chemical_name_structure_type Feldspar#-(TC)-Albite-NaAlSi3O8
_chemical_name_mineral 'Anorthoclase low'
_exptl_crystal_density_diffrn 2.59
_cell_measurement_temperature 296.
_publ_section_title
'The anorthoclase structures: the effects of temperature and composition'
loop_
_citation_id
_citation_journal_full
_citation_year
_citation_journal_volume
_citation_page_first
_citation_page_last
_citation_journal_id_ASTM
primary 'American Mineralogist' 1982 67 975 996 AMMIAY
loop_
_publ_author_name
'Harlow, G.E.'
_cell_length_a 8.2168(6)
_cell_length_b 12.9166(7)
_cell_length_c 7.1260(5)
_cell_angle_alpha 92.754(4)
_cell_angle_beta 116.357(4)
_cell_angle_gamma 90.239(5)
_cell_volume 676.63
_cell_formula_units_Z 4
_symmetry_space_group_name_H-M 'C -1'
_symmetry_Int_Tables_number 2
_refine_ls_R_factor_all 0.058
loop_
_symmetry_equiv_pos_site_id
_symmetry_equiv_pos_as_xyz
1 '-x, -y, -z'
2 'x, y, z'
3 '-x+1/2, -y+1/2, -z'
4 'x+1/2, y+1/2, z'
loop_
_atom_type_symbol
_atom_type_oxidation_number
Al3+ 3
Si4+ 4
Al3+ 3
Si4+ 4
Al3+ 3
Si4+ 4
Al3+ 3
Si4+ 4
Na1+ 1
K1+ 1
O2- -2
loop_
_atom_site_label
_atom_site_type_symbol
_atom_site_symmetry_multiplicity
_atom_site_Wyckoff_symbol
_atom_site_fract_x
_atom_site_fract_y
_atom_site_fract_z
_atom_site_B_iso_or_equiv
_atom_site_occupancy
_atom_site_attached_hydrogens
Al1 Al3+ 4 i 0.0087(1) 0.1686(1) 0.2168(1) . 0.25 0
Si1 Si4+ 4 i 0.0087(1) 0.1686(1) 0.2168(1) . 0.75 0
Al2 Al3+ 4 i 0.0054(1) 0.8153(1) 0.2275(1) . 0.25 0
Si2 Si4+ 4 i 0.0054(1) 0.8153(1) 0.2275(1) . 0.75 0
Al3 Al3+ 4 i 0.6923(1) 0.1099(1) 0.3256(1) . 0.25 0
Si3 Si4+ 4 i 0.6923(1) 0.1099(1) 0.3256(1) . 0.75 0
Al4 Al3+ 4 i 0.6886(1) 0.8789(1) 0.3514(1) . 0.25 0
Si4 Si4+ 4 i 0.6886(1) 0.8789(1) 0.3514(1) . 0.75 0
Na1 Na1+ 4 i 0.2743(2) 0.0051(2) 0.1350(3) . 0.85 0
K1 K1+ 4 i 0.2743(2) 0.0051(2) 0.1350(3) . 0.15 0
O1 O2- 4 i 0.0045(4) 0.1369(2) 0.9881(4) . 1. 0
O2 O2- 4 i 0.5969(3) 0.9925(2) 0.2818(4) . 1. 0
O3 O2- 4 i 0.8220(4) 0.1145(2) 0.2051(4) . 1. 0
O4 O2- 4 i 0.8203(4) 0.8499(3) 0.2422(4) . 1. 0
O5 O2- 4 i 0.0188(3) 0.2940(2) 0.2724(4) . 1. 0
O6 O2- 4 i 0.0225(3) 0.6882(2) 0.2267(4) . 1. 0
O7 O2- 4 i 0.1932(3) 0.1146(2) 0.3911(4) . 1. 0
O8 O2- 4 i 0.1882(4) 0.8685(2) 0.4232(4) . 1. 0
loop_
_atom_site_aniso_label
_atom_site_aniso_type_symbol
_atom_site_aniso_beta_11
_atom_site_aniso_beta_22
_atom_site_aniso_beta_33
_atom_site_aniso_beta_12
_atom_site_aniso_beta_13
_atom_site_aniso_beta_23
Al1 Al3+ 0.0047(1) 0.0019(1) 0.0073(2) -.0005(1) 0.0029(1) -.0004(1)
Si1 Si4+ 0.0047(1) 0.0019(1) 0.0073(2) -.0005(1) 0.0029(1) -.0004(1)
Al2 Al3+ 0.0044(1) 0.0018(1) 0.0068(2) 0.0003(1) 0.0027(1) -.0002(1)
Si2 Si4+ 0.0044(1) 0.0018(1) 0.0068(2) 0.0003(1) 0.0027(1) -.0002(1)
Al3 Al3+ 0.0044(1) 0.0014(1) 0.0082(2) -.0002(1) 0.0025(1) -.0002(1)
Si3 Si4+ 0.0044(1) 0.0014(1) 0.0082(2) -.0002(1) 0.0025(1) -.0002(1)
Al4 Al3+ 0.0045(1) 0.0015(1) 0.0083(2) 0.0000(1) 0.0028(1) -.0002(1)
Si4 Si4+ 0.0045(1) 0.0015(1) 0.0083(2) 0.0000(1) 0.0028(1) -.0002(1)
Na1 Na1+ -.0016(3) 0.0115(3) 0.0227(6) 0.0005(2) -.0021(3) -.0144(3)
K1 K1+ -.0016(3) 0.0115(3) 0.0227(6) 0.0005(2) -.0021(3) -.0144(3)
O1 O2- 0.0113(5) 0.0033(2) 0.0117(6) 0.0000(2) 0.0063(5) -.0003(2)
O2 O2- 0.0075(4) 0.0023(2) 0.0118(6) -.0003(2) 0.0034(4) 0.0004(2)
O3 O2- 0.0090(5) 0.0036(2) 0.0164(7) -.0010(2) 0.0074(5) -.0004(3)
O4 O2- 0.0081(5) 0.0045(2) 0.0169(7) 0.0006(2) 0.0072(5) -.0010(3)
O5 O2- 0.0077(4) 0.0024(2) 0.0158(7) -.0006(2) 0.0050(4) -.0009(2)
O6 O2- 0.0077(4) 0.0027(2) 0.0107(6) 0.0006(2) 0.0021(4) 0.0003(2)
O7 O2- 0.0080(4) 0.0029(2) 0.0102(6) 0.0004(2) 0.0020(4) 0.0004(2)
O8 O2- 0.0076(4) 0.0034(2) 0.0109(6) -.0004(2) 0.0011(4) 0.0015(2)
#End of TTdata_31184-ICSD