
#(C) 2019 by FIZ Karlsruhe - Leibniz Institute for Information Infrastructure.  All rights reserved.
data_31181-ICSD
_database_code_ICSD 31181
_audit_creation_date 1982-12-31
_audit_update_record 2003-04-01
_chemical_name_systematic 'Sodium potassium tecto-alumotrisilicate *'
_chemical_formula_structural '(Na0.667 K0.333) (Al Si3 O8)'
_chemical_formula_sum 'Al1 K0.333 Na0.667 O8 Si3'
_chemical_name_structure_type Feldspar#-(MO,C12/m1)-KAlSi3O8
_chemical_name_mineral 'Anorthoclase high'
_exptl_crystal_density_diffrn 2.55
_cell_measurement_temperature 673.
_publ_section_title
'The anorthoclase structures: the effects of temperature and composition'
loop_
_citation_id
_citation_journal_full
_citation_year
_citation_journal_volume
_citation_page_first
_citation_page_last
_citation_journal_id_ASTM
primary 'American Mineralogist' 1982 67 975 996 AMMIAY
loop_
_publ_author_name
'Harlow, G.E.'
_cell_length_a 8.3482(7)
_cell_length_b 12.9800(7)
_cell_length_c 7.1582(5)
_cell_angle_alpha 90.
_cell_angle_beta 116.109(5)
_cell_angle_gamma 90.
_cell_volume 696.51
_cell_formula_units_Z 4
_symmetry_space_group_name_H-M 'C 1 2/m 1'
_symmetry_Int_Tables_number 12
_refine_ls_R_factor_all 0.073
loop_
_symmetry_equiv_pos_site_id
_symmetry_equiv_pos_as_xyz
1 '-x, y, -z'
2 '-x, -y, -z'
3 'x, -y, z'
4 'x, y, z'
5 '-x+1/2, y+1/2, -z'
6 '-x+1/2, -y+1/2, -z'
7 'x+1/2, -y+1/2, z'
8 'x+1/2, y+1/2, z'
loop_
_atom_type_symbol
_atom_type_oxidation_number
Al3+ 3
Si4+ 4
Al3+ 3
Si4+ 4
Na1+ 1
K1+ 1
O2- -2
loop_
_atom_site_label
_atom_site_type_symbol
_atom_site_symmetry_multiplicity
_atom_site_Wyckoff_symbol
_atom_site_fract_x
_atom_site_fract_y
_atom_site_fract_z
_atom_site_B_iso_or_equiv
_atom_site_occupancy
_atom_site_attached_hydrogens
Al1 Al3+ 8 j 0.0091(2) 0.1797(1) 0.2238(3) . 0.25 0
Si1 Si4+ 8 j 0.0091(2) 0.1797(1) 0.2238(3) . 0.75 0
Al2 Al3+ 8 j 0.6985(2) 0.1167(1) 0.3431(2) . 0.25 0
Si2 Si4+ 8 j 0.6985(2) 0.1167(1) 0.3431(2) . 0.75 0
Na1 Na1+ 4 i 0.2796(5) 0 0.1366(7) . 0.667 0
K1 K1+ 4 i 0.2796(5) 0 0.1366(7) . 0.333 0
O1 O2- 4 g 0 0.1408(6) 0 . 1. 0
O2 O2- 4 i 0.6157(9) 0 0.2884(12) . 1. 0
O3 O2- 8 j 0.8242(5) 0.1373(4) 0.2236(7) . 1. 0
O4 O2- 8 j 0.0275(6) 0.3078(3) 0.2544(9) . 1. 0
O5 O2- 8 j 0.1883(5) 0.1248(4) 0.4087(6) . 1. 0
loop_
_atom_site_aniso_label
_atom_site_aniso_type_symbol
_atom_site_aniso_beta_11
_atom_site_aniso_beta_22
_atom_site_aniso_beta_33
_atom_site_aniso_beta_12
_atom_site_aniso_beta_13
_atom_site_aniso_beta_23
Al1 Al3+ 0.0135(3) 0.0031(1) 0.0106(3) -.0008(2) 0.0076(3) -.0002(2)
Si1 Si4+ 0.0135(3) 0.0031(1) 0.0106(3) -.0008(2) 0.0076(3) -.0002(2)
Al2 Al3+ 0.0132(3) 0.0025(1) 0.0124(4) -.0002(2) 0.0075(3) -.0001(2)
Si2 Si4+ 0.0132(3) 0.0025(1) 0.0124(4) -.0002(2) 0.0075(3) -.0001(2)
Na1 Na1+ 0.0095(8) 0.0107(4) 0.0334(17) 0 0.0087(9) 0
K1 K1+ 0.0095(8) 0.0107(4) 0.0334(17) 0 0.0087(9) 0
O1 O2- 0.0240(12) 0.0049(4) 0.0098(11) 0 0.0096(9) 0
O2 O2- 0.0190(14) 0.0032(3) 0.0194(20) 0 0.0089(14) 0
O3 O2- 0.0182(8) 0.0064(3) 0.0290(14) -.0006(7) 0.0159(9) 0.0011(9)
O4 O2- 0.0187(10) 0.0037(3) 0.0280(16) -.0012(6) 0.0136(11) -.0014(7)
O5 O2- 0.0190(9) 0.0045(3) 0.0209(12) 0.0015(6) 0.0082(8) 0.0016(7)
#End of TTdata_31181-ICSD