
#(C) 2019 by FIZ Karlsruhe - Leibniz Institute for Information Infrastructure.  All rights reserved.
data_31183-ICSD
_database_code_ICSD 31183
_audit_creation_date 1982-12-31
_audit_update_record 2015-02-01
_chemical_name_systematic 'Sodium potassium tecto-alumotrisilicate *'
_chemical_formula_structural '(Na0.75 K0.25) (Al Si3 O8)'
_chemical_formula_sum 'Al1 K0.25 Na0.75 O8 Si3'
_chemical_name_structure_type Feldspar#-(MO,C12/m1)-KAlSi3O8
_chemical_name_mineral 'Anorthoclase high'
_exptl_crystal_density_diffrn 2.55
_cell_measurement_temperature 783.
_publ_section_title
'The anorthoclase structures: the effects of temperature and composition'
loop_
_citation_id
_citation_journal_full
_citation_year
_citation_journal_volume
_citation_page_first
_citation_page_last
_citation_journal_id_ASTM
primary 'American Mineralogist' 1982 67 975 996 AMMIAY
loop_
_publ_author_name
'Harlow, G.E.'
_cell_length_a 8.314(1)
_cell_length_b 12.972(2)
_cell_length_c 7.150(1)
_cell_angle_alpha 90.
_cell_angle_beta 116.135(8)
_cell_angle_gamma 90.
_cell_volume 692.28
_cell_formula_units_Z 4
_symmetry_space_group_name_H-M 'C 1 2/m 1'
_symmetry_Int_Tables_number 12
_refine_ls_R_factor_all 0.047
loop_
_symmetry_equiv_pos_site_id
_symmetry_equiv_pos_as_xyz
1 '-x, y, -z'
2 '-x, -y, -z'
3 'x, -y, z'
4 'x, y, z'
5 '-x+1/2, y+1/2, -z'
6 '-x+1/2, -y+1/2, -z'
7 'x+1/2, -y+1/2, z'
8 'x+1/2, y+1/2, z'
loop_
_atom_type_symbol
_atom_type_oxidation_number
Al3+ 3
Si4+ 4
Al3+ 3
Si4+ 4
Na1+ 1
K1+ 1
O2- -2
loop_
_atom_site_label
_atom_site_type_symbol
_atom_site_symmetry_multiplicity
_atom_site_Wyckoff_symbol
_atom_site_fract_x
_atom_site_fract_y
_atom_site_fract_z
_atom_site_B_iso_or_equiv
_atom_site_occupancy
_atom_site_attached_hydrogens
Al1 Al3+ 8 j 0.0081(1) 0.1792(1) 0.2236(2) . 0.25 0
Si1 Si4+ 8 j 0.0081(1) 0.1792(1) 0.2236(2) . 0.75 0
Al2 Al3+ 8 j 0.6967(1) 0.1164(1) 0.3422(2) . 0.25 0
Si2 Si4+ 8 j 0.6967(1) 0.1164(1) 0.3422(2) . 0.75 0
Na1 Na1+ 4 i 0.2780(3) 0 0.1372(4) . 0.75 0
K1 K1+ 4 i 0.2780(3) 0 0.1372(4) . 0.25 0
O1 O2- 4 g 0 0.1391 0 . 1. 0
O2 O2- 4 i 0.6084(5) 0 0.2842(6) . 1. 0
O3 O2- 8 j 0.8230(4) 0.1361(2) 0.2242(5) . 1. 0
O4 O2- 8 j 0.0256(4) 0.3044(2) 0.2528(5) . 1. 0
O5 O2- 8 j 0.1877(4) 0.1241(2) 0.4063(4) . 1. 0
loop_
_atom_site_aniso_label
_atom_site_aniso_type_symbol
_atom_site_aniso_beta_11
_atom_site_aniso_beta_22
_atom_site_aniso_beta_33
_atom_site_aniso_beta_12
_atom_site_aniso_beta_13
_atom_site_aniso_beta_23
Al1 Al3+ 0.0093(2) 0.0028(1) 0.0092(2) -.0009(1) 0.0049(2) -.0002(1)
Si1 Si4+ 0.0093(2) 0.0028(1) 0.0092(2) -.0009(1) 0.0049(2) -.0002(1)
Al2 Al3+ 0.0087(2) 0.0021(1) 0.0111(2) -.0003(2) 0.0047(2) -.0002(1)
Si2 Si4+ 0.0087(2) 0.0021(1) 0.0111(2) -.0003(2) 0.0047(2) -.0002(1)
Na1 Na1+ 0.0060(5) 0.0106(3) 0.0291(9) 0 0.0048(6) 0
K1 K1+ 0.0060(5) 0.0106(3) 0.0291(9) 0 0.0048(6) 0
O1 O2- 0.0202(9) 0.0056(3) 0.0129(9) 0 0.0096(8) 0
O2 O2- 0.0123(8) 0.0028(2) 0.0219(11) 0 0.0051(8) 0
O3 O2- 0.0145(6) 0.0070(2) 0.0282(9) -.0025(3) 0.0139(6) -.0006(4)
O4 O2- 0.0148(6) 0.0035(2) 0.0250(8) -.0015(3) 0.0086(3) -.0007(3)
O5 O2- 0.0153(6) 0.0056(2) 0.0153(7) 0.0010(3) 0.0035(5) 0.0019(3)
#End of TTdata_31183-ICSD