
#(C) 2019 by FIZ Karlsruhe - Leibniz Institute for Information Infrastructure.  All rights reserved.
data_31309-ICSD
_database_code_ICSD 31309
_audit_creation_date 1983-12-31
_audit_update_record 2007-08-01
_chemical_name_systematic 'Disodium tecto-dialumotrisilicate dihydrate'
_chemical_formula_structural 'Na2 (Al2 Si3 O10) (H2 O)2'
_chemical_formula_sum 'H4 Al2 Na2 O12 Si3'
_chemical_name_structure_type Natrolite-frame
_chemical_name_mineral Natrolite
_exptl_crystal_density_diffrn 2.24
_publ_section_title

;
A neutron diffraction refinement of the crystal structure of natural
natrolite, Na2 Al2 Si3 O10 * (H2 O)2
;
loop_
_citation_id
_citation_journal_full
_citation_year
_citation_journal_volume
_citation_page_first
_citation_page_last
_citation_journal_id_ASTM
primary 'Zeitschrift fuer Kristallographie' 1983 164 19 24 ZEKRDZ
loop_
_publ_author_name
'Pechar, F.'
'Schaefer, W.'
'Will, G.'
_cell_length_a 18.3260(50)
_cell_length_b 18.6520(50)
_cell_length_c 6.601(3)
_cell_angle_alpha 90.
_cell_angle_beta 90.
_cell_angle_gamma 90.
_cell_volume 2256.33
_cell_formula_units_Z 8
_symmetry_space_group_name_H-M 'F d d 2'
_symmetry_Int_Tables_number 43
_refine_ls_R_factor_all 0.028
loop_
_symmetry_equiv_pos_site_id
_symmetry_equiv_pos_as_xyz
1 'x+1/4, -y+1/4, z+1/4'
2 '-x+1/4, y+1/4, z+1/4'
3 '-x, -y, z'
4 'x, y, z'
5 'x+1/4, -y+3/4, z+3/4'
6 '-x+1/4, y+3/4, z+3/4'
7 '-x, -y+1/2, z+1/2'
8 'x, y+1/2, z+1/2'
9 'x+3/4, -y+1/4, z+3/4'
10 '-x+3/4, y+1/4, z+3/4'
11 '-x+1/2, -y, z+1/2'
12 'x+1/2, y, z+1/2'
13 'x+3/4, -y+3/4, z+1/4'
14 '-x+3/4, y+3/4, z+1/4'
15 '-x+1/2, -y+1/2, z'
16 'x+1/2, y+1/2, z'
loop_
_atom_type_symbol
_atom_type_oxidation_number
Na1+ 1
Al3+ 3
Si4+ 4
O2- -2
H1+ 1
loop_
_atom_site_label
_atom_site_type_symbol
_atom_site_symmetry_multiplicity
_atom_site_Wyckoff_symbol
_atom_site_fract_x
_atom_site_fract_y
_atom_site_fract_z
_atom_site_B_iso_or_equiv
_atom_site_occupancy
_atom_site_attached_hydrogens
Na1 Na1+ 16 b 0.2202(5) 0.0308(5) 0.6175(3) . 1. 0
Al1 Al3+ 16 b 0.0378(5) 0.0938(5) 0.6158(3) . 1. 0
Si1 Si4+ 8 a 0 0 0 . 1. 0
Si2 Si4+ 16 b 0.1533(5) 0.2111(5) 0.6237(3) . 1. 0
O1 O2- 16 b 0.0231(5) 0.0686(5) 0.8651(3) . 1. 0
O2 O2- 16 b 0.0698(5) 0.1815(5) 0.6112(3) . 1. 0
O3 O2- 16 b 0.0982(5) 0.0345(5) 0.5019(3) . 1. 0
O4 O2- 16 b 0.2071(5) 0.1530(5) 0.7264(3) . 1. 0
O5 O2- 16 b 0.1807(5) 0.2274(5) 0.3903(3) . 1. 0
O6 O2- 16 b 0.0570(5) 0.1888(5) 0.1122(5) . 1. 0
H1 H1+ 16 b 0.0524(5) 0.1470(5) 0.0417(5) . 1. 0
H2 H1+ 16 b 0.1016(5) 0.1900(5) 0.1801(5) . 1. 0
loop_
_atom_site_aniso_label
_atom_site_aniso_type_symbol
_atom_site_aniso_beta_11
_atom_site_aniso_beta_22
_atom_site_aniso_beta_33
_atom_site_aniso_beta_12
_atom_site_aniso_beta_13
_atom_site_aniso_beta_23
Na1 Na1+ 0.0011 0.0009 0.0034 -.0003 -.0009 0.0003
Al1 Al3+ 0.0001 0.0001 0.0002 0 0 0
Si1 Si4+ 0.0008 0.001 0.0046 0.0002 0 0
Si2 Si4+ 0.0004 0.0003 0.0005 -.0003 0 0
O1 O2- 0.001 0.0005 0.0003 0.0001 0.0004 0.0003
O2 O2- 0.0005 0.0005 0.0025 0 -.0003 -.0003
O3 O2- 0.001 0.0012 0.0062 0 0.0006 -.0007
O4 O2- 0.0007 0.0007 0.0048 0.0001 -.001 0.0007
O5 O2- 0.0008 0.0009 0.0018 -.0001 0.0002 0.0003
O6 O2- 0.0012 0.0014 0.0092 0.0001 0.0007 0.0005
H1 H1+ 0.0025 0.002 0.0177 -.0001 0.0017 -.0018
H2 H1+ 0.0026 0.0034 0.0148 -.0003 -.0018 0.0004
#End of TTdata_31309-ICSD