
#(C) 2019 by FIZ Karlsruhe - Leibniz Institute for Information Infrastructure.  All rights reserved.
data_31857-ICSD
_database_code_ICSD 31857
_audit_creation_date 1980-01-01
_audit_update_record 2007-04-01
_chemical_name_systematic 'Disodium duo-disulfate(V) dihydrate'
_chemical_formula_structural 'Na2 (S2 O6) (H2 O)2'
_chemical_formula_sum 'H4 Na2 O8 S2'
_chemical_name_structure_type Na2S2O6(H2O)2
_exptl_crystal_density_diffrn 2.19
_publ_section_title 'Dynamics of water in crystal hydrates'
loop_
_citation_id
_citation_journal_full
_citation_year
_citation_journal_volume
_citation_page_first
_citation_page_last
_citation_journal_id_ASTM
primary

;
Zeitschrift fuer Naturforschung, Teil A: Astrophysik, Physik und Physikalische
Chemie
; 1967 22 1440 1451 ZENAAU
loop_
_publ_author_name
'Berthold, I.'
'Weiss, A.'
_cell_length_a 6.403(10)
_cell_length_b 10.750(5)
_cell_length_c 10.686(5)
_cell_angle_alpha 90.
_cell_angle_beta 90.
_cell_angle_gamma 90.
_cell_volume 735.54
_cell_formula_units_Z 4
_symmetry_space_group_name_H-M 'P n m a'
_symmetry_Int_Tables_number 62
loop_
_symmetry_equiv_pos_site_id
_symmetry_equiv_pos_as_xyz
1 'x+1/2, y, -z+1/2'
2 'x, -y+1/2, z'
3 '-x+1/2, y+1/2, z+1/2'
4 '-x, -y, -z'
5 '-x+1/2, -y, z+1/2'
6 '-x, y+1/2, -z'
7 'x+1/2, -y+1/2, -z+1/2'
8 'x, y, z'
loop_
_atom_type_symbol
_atom_type_oxidation_number
S5+ 5
O2- -2
Na1+ 1
H1+ 1
loop_
_atom_site_label
_atom_site_type_symbol
_atom_site_symmetry_multiplicity
_atom_site_Wyckoff_symbol
_atom_site_fract_x
_atom_site_fract_y
_atom_site_fract_z
_atom_site_B_iso_or_equiv
_atom_site_occupancy
_atom_site_attached_hydrogens
S1 S5+ 4 c 0.250(1) 0.25 0.459(1) 0.73 1. 0
S2 S5+ 4 c -.004(2) 0.25 0.591(1) 0.79 1. 0
O1 O2- 8 d 0.366(2) 0.136(1) 0.484(1) 1.6 1. 0
O2 O2- 4 c 0.140(2) 0.25 0.339(1) 1.07 1. 0
O3 O2- 8 d -.114(2) 0.135(1) 0.565(1) 1.95 1. 0
O4 O2- 4 c 0.097(2) 0.25 0.713(1) 1.85 1. 0
O5 O2- 8 d 0.258(1) 0.044(1) 0.187(1) 1.71 1. 0
Na1 Na1+ 8 d 0.069(1) 0.062(1) 0.847(1) 1.8 1. 0
H1 H1+ 8 d 0.821(5) 0.437(2) 0.393(3) . 1. 0
H2 H1+ 8 d 0.716(5) 0.377(2) 0.280(3) . 1. 0
#End of TTdata_31857-ICSD