
#(C) 2019 by FIZ Karlsruhe - Leibniz Institute for Information Infrastructure.  All rights reserved.
data_32522-ICSD
_database_code_ICSD 32522
_audit_creation_date 1982-12-31
_audit_update_record 2012-08-01
_chemical_name_systematic 'Hexasodium mue-phosphatodiphosphatothorate'
_chemical_formula_structural 'Na6 (Th (P O4) (P2 O7))2'
_chemical_formula_sum 'Na6 O22 P6 Th2'
_exptl_crystal_density_diffrn 4.28
_publ_section_title

;
The Structure of Hexasodium Bis(mue-(phosphato-O,O')-pyrophosphatothorate(IV))
;
loop_
_citation_id
_citation_journal_full
_citation_year
_citation_journal_volume
_citation_page_first
_citation_page_last
_citation_journal_id_ASTM
primary

;
Acta Crystallographica, Section B: Structural Crystallography and Crystal
Chemistry
; 1982 38 67 71 ACBCAR
loop_
_publ_author_name
'Kojic-Prodic, B.'
'Slukic, M.'
'Ruzic Toros, Z.'
_cell_length_a 8.734(2)
_cell_length_b 8.931(2)
_cell_length_c 6.468(1)
_cell_angle_alpha 93.33(3)
_cell_angle_beta 108.29(4)
_cell_angle_gamma 110.10(4)
_cell_volume 442.
_cell_formula_units_Z 1
_symmetry_space_group_name_H-M 'P -1'
_symmetry_Int_Tables_number 2
_refine_ls_R_factor_all 0.04
loop_
_symmetry_equiv_pos_site_id
_symmetry_equiv_pos_as_xyz
1 '-x, -y, -z'
2 'x, y, z'
loop_
_atom_type_symbol
_atom_type_oxidation_number
Th4+ 4
Na1+ 1
P5+ 5
O2- -2
loop_
_atom_site_label
_atom_site_type_symbol
_atom_site_symmetry_multiplicity
_atom_site_Wyckoff_symbol
_atom_site_fract_x
_atom_site_fract_y
_atom_site_fract_z
_atom_site_B_iso_or_equiv
_atom_site_occupancy
_atom_site_attached_hydrogens
Th1 Th4+ 2 i 0.33402(2) 0.29080(2) 0.07553(3) . 1. 0
Na1 Na1+ 2 i -.0125(5) 0.1311(5) 0.3616(7) . 1. 0
Na2 Na1+ 2 i 0.1781(6) 0.5632(5) 0.3998(7) . 1. 0
Na3 Na1+ 2 i 0.5847(7) 0.0346(7) 0.2930(11) . 1. 0
P1 P5+ 2 i 0.8631(2) 0.1274(2) -.1448(3) . 1. 0
P2 P5+ 2 i 0.7737(2) 0.3582(2) 0.0896(3) . 1. 0
P3 P5+ 2 i 0.3781(3) 0.2970(2) 0.5926(3) . 1. 0
O1 O2- 2 i 0.7249(8) -.0051(7) -.0797(11) . 1. 0
O2 O2- 2 i 0.0349(8) 0.1625(7) 0.0098(11) . 1. 0
O3 O2- 2 i 0.8571(10) 0.1018(10) -.3750(11) . 1. 0
O4 O2- 2 i 0.8182(7) 0.2870(7) -.1124(10) . 1. 0
O5 O2- 2 i 0.8927(9) 0.3518(8) 0.2947(10) . 1. 0
O6 O2- 2 i 0.7948(8) 0.5282(8) 0.0450(13) . 1. 0
O7 O2- 2 i 0.5902(8) 0.2501(7) 0.0732(11) . 1. 0
O8 O2- 2 i 0.2570(8) 0.3341(8) 0.4056(10) . 1. 0
O9 O2- 2 i 0.4984(9) 0.2470(9) 0.4924(11) . 1. 0
O10 O2- 2 i 0.4667(8) 0.4449(7) 0.7714(10) . 1. 0
O11 O2- 2 i 0.2762(8) 0.1670(7) 0.7068(10) . 1. 0
loop_
_atom_site_aniso_label
_atom_site_aniso_type_symbol
_atom_site_aniso_U_11
_atom_site_aniso_U_22
_atom_site_aniso_U_33
_atom_site_aniso_U_12
_atom_site_aniso_U_13
_atom_site_aniso_U_23
Th1 Th4+ 0.0042(1) 0.0085(1) 0.0063(1) 0.0034 0.0004 0.0002
Na1 Na1+ 0.0197(17) 0.0313(22) 0.0208(17) 0.0147(16) 0.0094(14) 0.0131(15)
Na2 Na1+ 0.0253(19) 0.0294(19) 0.0187(16) 0.0137(16) 0.0073(14) 0.0056(14)
Na3 Na1+ 0.0371(26) 0.0454(29) 0.0614(35) 0.0294(23) 0.0174(25) 0.0283(26)
P1 P5+ 0.0072(7) 0.0114(7) 0.0100(7) 0.0024(6) 0.0020(5) -.0011(6)
P2 P5+ 0.0062(7) 0.0130(8) 0.0121(7) 0.0061(6) 0.0010(6) 0.0028(6)
P3 P5+ 0.0080(7) 0.0153(8) 0.0057(7) 0.0042(6) 0.0001(5) -.0009(6)
O1 O2- 0.0106(23) 0.0101(23) 0.0207(22) 0.0034(19) 0.0031(20) 0.0018(20)
O2 O2- 0.0092(23) 0.0126(24) 0.0232(29) 0.0049(19) 0.0021(21) 0.0016(21)
O3 O2- 0.0268(34) 0.0306(36) 0.0137(28) 0.0042(28) 0.0074(25) -.0063(24)
O4 O2- 0.0093(22) 0.0152(25) 0.0118(23) 0.0066(19) 0.0013(18) 0.0032(19)
O5 O2- 0.0188(28) 0.0268(31) 0.0102(24) 0.0153(25) -.0009(20) 0.0023(21)
O6 O2- 0.0127(25) 0.0129(26) 0.0351(36) 0.0064(21) 0.0053(24) 0.0090(24)
O7 O2- 0.0111(24) 0.0159(26) 0.022(23) 0.0062(20) 0.0074(21) 0.0073(21)
O8 O2- 0.0116(24) 0.0258(30) 0.0079(22) 0.0088(22) -.0009(18) 0.0015(20)
O9 O2- 0.0150(27) 0.0271(32) 0.0199(29) 0.0097(24) 0.0051(22) -.0058(24)
O10 O2- 0.0114(23) 0.0117(24) 0.0100(23) -.0007(19) -.0029(18) -.0039(28)
O11 O2- 0.0145(25) 0.0155(26) 0.0111(23) 0.0027(20) 0.0027(19) 0.0009(19)
#End of TTdata_32522-ICSD