
#(C) 2019 by FIZ Karlsruhe - Leibniz Institute for Information Infrastructure.  All rights reserved.
data_32554-ICSD
_database_code_ICSD 32554
_audit_creation_date 1982-12-31
_chemical_name_systematic
'Trisodium tetrathioarsenate(V) octakis(dideuteriohydrate)'
_chemical_formula_structural 'Na3 (As S4) (D2 O)8'
_chemical_formula_sum 'D16 As1 Na3 O8 S4'
_chemical_name_structure_type Na3(PS4)(H2O)8
_exptl_crystal_density_diffrn 1.91
_publ_section_title

;
Hydrogen bonds in Na3 As S4 (D2 O)8: Neutron diffraction, x-ray diffraction
and vibrational spectroscopic studies
;
loop_
_citation_id
_citation_journal_full
_citation_year
_citation_journal_volume
_citation_page_first
_citation_page_last
_citation_journal_id_ASTM
primary

;
Acta Crystallographica, Section B: Structural Crystallography and Crystal
Chemistry
; 1982 38 401 408 ACBCAR
loop_
_publ_author_name
'Mereiter, K.'
'Preisinger, A.'
'Baumgartner, O.'
'Heger, G.'
'Mikenda, W.'
'Steidl, H.'
_cell_length_a 8.683(2)
_cell_length_b 12.979(2)
_cell_length_c 13.702(2)
_cell_angle_alpha 90.
_cell_angle_beta 103.40(1)
_cell_angle_gamma 90.
_cell_volume 1502.13
_cell_formula_units_Z 4
_symmetry_space_group_name_H-M 'P 1 21/c 1'
_symmetry_Int_Tables_number 14
_refine_ls_R_factor_all 0.052
loop_
_symmetry_equiv_pos_site_id
_symmetry_equiv_pos_as_xyz
1 'x, -y+1/2, z+1/2'
2 '-x, -y, -z'
3 '-x, y+1/2, -z+1/2'
4 'x, y, z'
loop_
_atom_type_symbol
_atom_type_oxidation_number
Na1+ 1
As5+ 5
S2- -2
O2- -2
D1+ 1
loop_
_atom_site_label
_atom_site_type_symbol
_atom_site_symmetry_multiplicity
_atom_site_Wyckoff_symbol
_atom_site_fract_x
_atom_site_fract_y
_atom_site_fract_z
_atom_site_B_iso_or_equiv
_atom_site_occupancy
_atom_site_attached_hydrogens
Na1 Na1+ 2 a 0 0 0 . 1. 0
Na2 Na1+ 2 d 0.5 0.5 0 . 1. 0
Na3 Na1+ 4 e 0.33786(38) 0.55102(26) 0.40885(24) . 1. 0
Na4 Na1+ 4 e 0.82931(41) 0.05993(27) 0.41629(24) . 1. 0
As1 As5+ 4 e 0.71371(17) 0.67100(11) 0.25173(11) . 1. 0
S1 S2- 4 e 0.78796(43) 0.51244(28) 0.28607(25) . 1. 0
S2 S2- 4 e 0.60741(50) 0.68916(30) 0.09533(28) . 1. 0
S3 S2- 4 e 0.54835(49) 0.71230(32) 0.34178(30) . 1. 0
S4 S2- 4 e 0.92022(47) 0.77124(31) 0.28591(29) . 1. 0
O1 O2- 4 e 0.19526(28) 0.10393(19) 0.95872(19) . 1. 0
O2 O2- 4 e 0.14931(26) 0.84927(17) 0.96617(18) . 1. 0
O3 O2- 4 e 0.73950(29) 0.40271(20) 0.06587(17) . 1. 0
O4 O2- 4 e 0.40980(27) 0.46005(17) 0.14573(17) . 1. 0
O5 O2- 4 e 0.53115(25) 0.42637(18) 0.41107(16) . 1. 0
O6 O2- 4 e 0.14567(28) 0.51950(19) 0.25113(16) . 1. 0
O7 O2- 4 e 0.78800(33) 0.23483(19) 0.35013(19) . 1. 0
O8 O2- 4 e 0.09141(27) 0.11026(19) 0.50096(18) . 1. 0
D1 D1+ 4 e 0.18508(40) 0.15270(21) 0.90706(24) . 1. 0
D2 D1+ 4 e 0.26592(32) 0.13573(22) 1.01410(22) . 1. 0
D3 D1+ 4 e 0.07316(26) 0.81079(18) 0.91744(17) . 1. 0
D4 D1+ 4 e 0.17154(28) 0.80978(18) 1.02694 . 1. 0
D5 D1+ 4 e 0.77030(31) 0.43219(23) 0.13153(18) . 1. 0
D6 D1+ 4 e 0.71293(53) 0.33554(27) 0.07569(27) . 1. 0
D7 D1+ 4 e 0.49687(35) 0.48187(22) 0.19606(19) . 1. 0
D8 D1+ 4 e 0.40763(28) 0.38682(19) 0.15277(18) . 1. 0
D9 D1+ 4 e 0.60762(27) 0.44132(20) 0.37223(17) . 1. 0
D10 D1+ 4 e 0.49836(29) 0.35625(19) 0.39826(18) . 1. 0
D11 D1+ 4 e 0.04207(28) 0.53077(21) 0.26124(17) . 1. 0
D12 D1+ 4 e 0.14791(32) 0.44544(21) 0.24477(18) . 1. 0
D13 D1+ 4 e 0.68917(35) 0.23296(22) 0.30225(21) . 1. 0
D14 D1+ 4 e 0.86718(37) 0.24332(23) 0.31230(21) . 1. 0
D15 D1+ 4 e 0.17081(30) 0.13681(19) 0.46900(19) . 1. 0
D16 D1+ 4 e 0.09715(29) 0.15420(19) 0.55790(19) . 1. 0
loop_
_atom_site_aniso_label
_atom_site_aniso_type_symbol
_atom_site_aniso_U_11
_atom_site_aniso_U_22
_atom_site_aniso_U_33
_atom_site_aniso_U_12
_atom_site_aniso_U_13
_atom_site_aniso_U_23
Na1 Na1+ 0.0270(22) 0.0295(24) 0.0389(25) -.0024(19) 0.0141(19) 0.0030(19)
Na2 Na1+ 0.0321(23) 0.0359(25) 0.0312(23) 0.0003(20) 0.0143(18) -.0052(20)
Na3 Na1+ 0.0275(16) 0.0305(17) 0.0321(17) 0.0040(14) 0.0068(13) 0.0019(13)
Na4 Na1+ 0.0382(18) 0.0344(17) 0.0255(15) -.0056(15) 0.0087(13) -.0007(13)
As1 As5+ 0.0201(7) 0.0162(7) 0.0169(6) -.0005(6) 0.0048(5) -.0007(5)
S1 S2- 0.0236(17) 0.0211(17) 0.0171(15) 0.0005(14) 0.0043(13) 0.0002(14)
S2 S2- 0.0357(21) 0.0222(18) 0.0181(17) 0.0013(16) 0.0021(15) -.0004(14)
S3 S2- 0.0323(21) 0.0272(20) 0.0287(20) 0.0002(16) 0.0181(17) 0.0002(16)
S4 S2- 0.0240(18) 0.0271(19) 0.0268(19) -.0040(16) 0.0045(14) -.0009(15)
O1 O2- 0.0401(13) 0.0343(11) 0.0340(12) -.0143(11) 0.0139(10) -.0008(11)
O2 O2- 0.0310(11) 0.0333(11) 0.0312(11) -.0109(10) 0.0009(9) 0.0023(10)
O3 O2- 0.0412(12) 0.0365(13) 0.0271(12) 0.0045(10) 0.0101(9) 0.001(1)
O4 O2- 0.0303(10) 0.0258(11) 0.0318(11) -.0014(9) 0.0031(9) 0.0026(9)
O5 O2- 0.0271(10) 0.0297(11) 0.0345(11) -.0008(9) 0.0125(9) -.0029(9)
O6 O2- 0.0313(12) 0.0355(13) 0.0308(11) 0.0013(10) 0.0113(9) 0.0000(9)
O7 O2- 0.0404(14) 0.0392(13) 0.0346(12) 0.0000(11) 0.0050(12) -.0064(10)
O8 O2- 0.0308(11) 0.0360(11) 0.0334(11) -.0057(10) 0.0087(9) -.0034(10)
D1 D1+ 0.1004(23) 0.0446(14) 0.0809(20) 0.0119(15) 0.0567(18) 0.0211(15)
D2 D1+ 0.0496(14) 0.0654(17) 0.0688(17) -.0143(13) 0.0168(13) -.0258(14)
D3 D1+ 0.0392(11) 0.0440(12) 0.0477(12) -.0091(10) 0.0052(10) -.0053(10)
D4 D1+ 0.0513(13) 0.0441(12) 0.0442(12) 0.0001(11) 0.0073(10) 0.0057(11)
D5 D1+ 0.0562(14) 0.0784(18) 0.0332(12) 0.0043(14) 0.0044(10) -.0011(13)
D6 D1+ 0.1423(36) 0.0562(18) 0.0791(22) -.0026(21) 0.0310(21) 0.0126(17)
D7 D1+ 0.0679(18) 0.0618(16) 0.0435(13) -.0136(14) -.0036(12) -.0024(12)
D8 D1+ 0.0490(13) 0.0386(13) 0.0532(13) -.0019(10) 0.0156(10) 0.0086(10)
D9 D1+ 0.0409(12) 0.0641(15) 0.0432(12) 0.0021(11) 0.0179(10) 0.0031(11)
D10 D1+ 0.0482(13) 0.0397(13) 0.0522(14) -.0010(11) 0.0065(10) -.0057(10)
D11 D1+ 0.0394(13) 0.0708(17) 0.0446(12) 0.0048(12) 0.0144(10) -.0003(12)
D12 D1+ 0.0662(16) 0.0451(15) 0.0450(13) 0.0038(12) 0.0124(11) 0.0023(11)
D13 D1+ 0.0563(16) 0.0584(16) 0.0591(16) 0.0063(13) -.0019(13) -.0069(13)
D14 D1+ 0.0697(18) 0.0650(17) 0.0534(15) 0.0011(15) 0.0214(14) 0.0013(13)
D15 D1+ 0.0475(13) 0.0504(13) 0.0534(13) -.0052(11) 0.0018(11) 0.0067(11)
D16 D1+ 0.0531(14) 0.0445(13) 0.0510(14) 0.0011(11) 0.0099(11) -.0060(11)
#End of TTdata_32554-ICSD