
#(C) 2019 by FIZ Karlsruhe - Leibniz Institute for Information Infrastructure.  All rights reserved.
data_3275-ICSD
_database_code_ICSD 3275
_audit_creation_date 2019-02-01
_chemical_name_systematic 'Trisodium dizinc tris(carbonate) fluoride'
_chemical_formula_structural 'Na3 Zn2 (C O3)3 F'
_chemical_formula_sum 'C3 F1 Na3 O9 Zn2'
_exptl_crystal_density_diffrn 3.24
_cell_measurement_temperature 103.
_publ_section_title

;
Synthesis, crystal structure and optical properties of a new fluorocarbonate
with an interesting sandwich-like structure
;
loop_
_citation_id
_citation_journal_full
_citation_year
_citation_journal_volume
_citation_page_first
_citation_page_last
_citation_journal_id_ASTM
primary 'Dalton Transactions' 2018 47 6464 6469 DTARAF
loop_
_publ_author_name
'Tang, Changcheng'
'Jiang, Xingxing'
'Guo, Shu'
'Xia, Mingjun'
'Liu, Lijuan'
'Wang, Xiaoyang'
'Lin, Zheshuai'
'Chen, Chuangtian'
_cell_length_a 14.6090(15)
_cell_length_b 8.5274(7)
_cell_length_c 20.1877(13)
_cell_angle_alpha 90.
_cell_angle_beta 102.426(7)
_cell_angle_gamma 90.
_cell_volume 2456.
_cell_formula_units_Z 12
_symmetry_space_group_name_H-M 'C 1 2/c 1'
_symmetry_Int_Tables_number 15
_refine_ls_R_factor_all 0.0438
loop_
_symmetry_equiv_pos_site_id
_symmetry_equiv_pos_as_xyz
1 'x, -y, z+1/2'
2 '-x, -y, -z'
3 '-x, y, -z+1/2'
4 'x, y, z'
5 'x+1/2, -y+1/2, z+1/2'
6 '-x+1/2, -y+1/2, -z'
7 '-x+1/2, y+1/2, -z+1/2'
8 'x+1/2, y+1/2, z'
loop_
_atom_type_symbol
_atom_type_oxidation_number
Zn2+ 2
Na1+ 1
F1- -1
C4+ 4
O2- -2
F1- -1
O2- -2
C4+ 4
O2- -2
loop_
_atom_site_label
_atom_site_type_symbol
_atom_site_symmetry_multiplicity
_atom_site_Wyckoff_symbol
_atom_site_fract_x
_atom_site_fract_y
_atom_site_fract_z
_atom_site_B_iso_or_equiv
_atom_site_occupancy
_atom_site_attached_hydrogens
Zn1 Zn2+ 8 f 0.19292(4) 0.27228(7) 0.34666(2) 0.00792(19) 1 0
Zn2 Zn2+ 8 f 0.13619(3) 0.27578(6) 0.14991(2) 0.00641(18) 1 0
Zn3 Zn2+ 8 f 0.02503(3) -0.23285(6) 0.34978(2) 0.00618(18) 1 0
Na1 Na1+ 8 f 0.14639(12) -0.0414(2) 0.24981(8) 0.0107(4) 1 0
Na2 Na1+ 4 e 0. 0.4090(3) 0.25 0.0103(5) 1 0
Na3 Na1+ 8 f 0.23474(11) -0.0571(2) 0.43302(8) 0.0096(4) 1 0
Na4 Na1+ 8 f 0.05478(13) 0.4409(2) 0.44546(10) 0.0191(5) 1 0
Na5 Na1+ 8 f 0.38170(12) 0.4047(2) 0.42984(9) 0.0117(4) 1 0
F1 F1- 4 e 0. -0.1682(4) 0.25 0.0111(8) 1 0
C1 C4+ 4 d 0.25 0.25 0.5 0.0114(15) 1 0
C2 C4+ 8 f 0.0887(3) 0.7585(5) 0.49889(19) 0.0096(11) 1 0
O1 O2- 8 f 0.4392(2) 0.0803(4) 0.32556(15) 0.0091(6) 1 0
O2 O2- 8 f 0.29826(19) -0.0155(3) 0.32687(14) 0.0070(6) 1 0
O3 O2- 8 f -0.02241(19) -0.0139(3) 0.36109(14) 0.0075(6) 1 0
O4 O2- 8 f 0.21966(19) 0.0886(4) 0.15592(14) 0.0065(6) 1 0
O5 O2- 8 f 0.3381(2) 0.2437(4) 0.14555(16) 0.0098(7) 1 0
O6 O2- 8 f 0.0038(2) 0.2423(4) 0.36927(16) 0.0123(7) 1 0
F2 F1- 8 f 0.12599(17) 0.2377(3) 0.24805(11) 0.0102(6) 1 0
O7 O2- 8 f 0.1143(2) 0.6575(4) 0.54814(14) 0.0111(7) 1 0
O8 O2- 8 f 0.3210(2) 0.2432(3) 0.32628(16) 0.0106(7) 1 0
O9 O2- 8 f 0.1195(2) 0.0800(3) 0.36144(14) 0.0089(6) 1 0
O10 O2- 8 f 0.1258(2) 0.8903(4) 0.49899(14) 0.0136(7) 1 0
O11 O2- 8 f 0.0209(2) 0.7103(4) 0.44987(14) 0.0112(7) 1 0
O12 O2- 8 f 0.3603(2) -0.0130(4) 0.1576(2) 0.0251(9) 1 0
C3 C4+ 8 f 0.0338(3) 0.1027(5) 0.3640(2) 0.0074(9) 1 0
C4 C4+ 8 f 0.3062(3) 0.1066(5) 0.1533(2) 0.0091(10) 1 0
C5 C4+ 8 f 0.3529(3) 0.1019(5) 0.3261(2) 0.0067(9) 1 0
O13 O2- 8 f 0.1813(4) 0.3367(7) 0.5097(3) 0.0096(13) 0.5 0
O14 O2- 8 f 0.2847(4) 0.1522(7) 0.5514(3) 0.0125(14) 0.5 0
O15 O2- 8 f 0.2746(4) 0.2314(7) 0.4457(3) 0.0078(13) 0.5 0
loop_
_atom_site_aniso_label
_atom_site_aniso_type_symbol
_atom_site_aniso_U_11
_atom_site_aniso_U_22
_atom_site_aniso_U_33
_atom_site_aniso_U_12
_atom_site_aniso_U_13
_atom_site_aniso_U_23
Zn1 Zn2+ 0.0079(3) 0.0082(4) 0.0078(3) -0.0027(2) 0.0020(2) -0.00038(19)
Zn2 Zn2+ 0.0059(3) 0.0057(3) 0.0074(3) 0.0000(2) 0.0009(2) -0.00047(18)
Zn3 Zn2+ 0.0051(3) 0.0058(3) 0.0075(3) -0.00005(19) 0.0012(2) 0.00045(18)
Na1 Na1+ 0.0091(8) 0.0108(10) 0.0111(9) -0.0009(8) -0.0001(6) -0.0017(6)
Na2 Na1+ 0.0079(12) 0.0110(14) 0.0123(13) 0. 0.0031(9) 0.
Na3 Na1+ 0.0087(9) 0.0092(10) 0.0101(9) -0.0010(7) 0.0006(6) -0.0002(7)
Na4 Na1+ 0.0180(10) 0.0107(11) 0.0316(11) -0.0046(8) 0.0119(8) -0.0089(9)
Na5 Na1+ 0.0110(9) 0.0132(10) 0.0114(9) -0.0012(7) 0.0037(7) -0.0032(7)
F1 F1- 0.0112(18) 0.012(2) 0.0085(18) 0. -0.0006(13) 0.
C1 C4+ 0.008(4) 0.007(4) 0.017(4) -0.002(3) -0.002(3) -0.002(3)
C2 C4+ 0.010(3) 0.014(3) 0.007(3) 0.004(2) 0.006(2) -0.0020(19)
O1 O2- 0.0074(15) 0.0050(16) 0.0153(16) 0.0006(12) 0.0034(12) -0.0015(12)
O2 O2- 0.0056(14) 0.0078(17) 0.0077(14) -0.0010(12) 0.0018(11) -0.0007(12)
O3 O2- 0.0036(15) 0.0051(17) 0.0138(16) 0.0033(12) 0.0021(11) 0.0009(12)
O4 O2- 0.0062(15) 0.0039(16) 0.0104(15) 0.0001(12) 0.0036(11) -0.0007(11)
O5 O2- 0.0055(16) 0.0088(18) 0.0143(17) -0.0013(12) 0.0002(12) 0.0004(12)
O6 O2- 0.0086(17) 0.0078(18) 0.0197(18) 0.0003(12) 0.0018(13) -0.0034(12)
F2 F1- 0.0101(14) 0.0121(15) 0.0085(13) -0.0016(10) 0.0024(10) -0.0005(9)
O7 O2- 0.0122(16) 0.0087(18) 0.0108(16) -0.0011(13) -0.0009(12) 0.0031(13)
O8 O2- 0.0071(17) 0.0044(17) 0.0190(18) 0.0004(12) 0.0001(13) -0.0009(12)
O9 O2- 0.0064(15) 0.0053(16) 0.0154(16) 0.0028(12) 0.0029(12) 0.0000(12)
O10 O2- 0.0209(18) 0.0112(19) 0.0094(16) -0.0052(14) 0.0050(12) -0.0031(12)
O11 O2- 0.0124(17) 0.0110(18) 0.0083(15) -0.0009(13) -0.0020(12) -0.0002(12)
O12 O2- 0.0118(18) 0.010(2) 0.057(3) 0.0050(15) 0.0157(17) 0.0179(17)
C3 C4+ 0.011(2) 0.007(2) 0.004(2) 0.0009(18) 0.0008(15) -0.0015(16)
C4 C4+ 0.012(2) 0.007(3) 0.010(2) -0.0010(18) 0.0033(17) 0.0010(17)
O13 O2- 0.005(3) 0.012(4) 0.012(3) 0.000(3) 0.002(2) -0.003(3)
O14 O2- 0.015(3) 0.009(4) 0.013(3) -0.008(3) 0.003(2) 0.001(3)
O15 O2- 0.008(3) 0.008(3) 0.009(3) 0.000(3) 0.004(3) -0.004(2)
#End of TTdata_3275-ICSD