
#(C) 2019 by FIZ Karlsruhe - Leibniz Institute for Information Infrastructure.  All rights reserved.
data_33509-ICSD
_database_code_ICSD 33509
_audit_creation_date 1982-12-31
_audit_update_record 2003-10-01
_chemical_name_systematic 'Disodium magnesium aluminium fluoride'
_chemical_formula_structural 'Na2 Mg Al F7'
_chemical_formula_sum 'Al1 F7 Mg1 Na2'
_chemical_name_structure_type Na2NiFeF7
_chemical_name_mineral Weberite
_exptl_crystal_density_diffrn 2.99
_publ_section_title 'What is the true space group of weberite?'
loop_
_citation_id
_citation_journal_full
_citation_year
_citation_journal_volume
_citation_page_first
_citation_page_last
_citation_journal_id_ASTM
primary 'Journal of Solid State Chemistry' 1982 43 213 221 JSSCBI
loop_
_publ_author_name
'Knop, O.'
'Cameron, T.S.'
'Jochem, K.'
_cell_length_a 7.051(1)
_cell_length_b 9.968(2)
_cell_length_c 7.285(1)
_cell_angle_alpha 90.
_cell_angle_beta 90.
_cell_angle_gamma 90.
_cell_volume 512.02
_cell_formula_units_Z 4
_symmetry_space_group_name_H-M 'I m m 2'
_symmetry_Int_Tables_number 44
_refine_ls_R_factor_all 0.019
loop_
_symmetry_equiv_pos_site_id
_symmetry_equiv_pos_as_xyz
1 'x, -y, z'
2 '-x, y, z'
3 '-x, -y, z'
4 'x, y, z'
5 'x+1/2, -y+1/2, z+1/2'
6 '-x+1/2, y+1/2, z+1/2'
7 '-x+1/2, -y+1/2, z+1/2'
8 'x+1/2, y+1/2, z+1/2'
loop_
_atom_type_symbol
_atom_type_oxidation_number
Na1+ 1
Mg2+ 2
Al3+ 3
F1- -1
loop_
_atom_site_label
_atom_site_type_symbol
_atom_site_symmetry_multiplicity
_atom_site_Wyckoff_symbol
_atom_site_fract_x
_atom_site_fract_y
_atom_site_fract_z
_atom_site_B_iso_or_equiv
_atom_site_occupancy
_atom_site_attached_hydrogens
Na1 Na1+ 4 c 0.2492(8) 0 0.4986(11) . 1. 0
Na2 Na1+ 4 d 0 0.2534(5) 0.7503(10) . 1. 0
Mg1 Mg2+ 4 c 0.2499(6) 0 0 . 1. 0
Al1 Al3+ 4 d 0 0.2499(3) 0.2503(7) . 1. 0
F1 F1- 2 a 0 0 0.8844(9) . 1. 0
F2 F1- 2 b 0 0.5 0.6119(8) . 1. 0
F3 F1- 4 d 0 0.1663(6) 0.4700(8) . 1. 0
F4 F1- 4 d 0 0.3367(6) 0.0282(8) . 1. 0
F5 F1- 8 e 0.1838(5) 0.1378(4) 0.1805(7) . 1. 0
F6 F1- 8 e 0.3165(4) 0.1371(4) 0.8198(8) . 1. 0
loop_
_atom_site_aniso_label
_atom_site_aniso_type_symbol
_atom_site_aniso_U_11
_atom_site_aniso_U_22
_atom_site_aniso_U_33
_atom_site_aniso_U_12
_atom_site_aniso_U_13
_atom_site_aniso_U_23
Na1 Na1+ 0.0181(5) 0.0196(5) 0.0556(7) 0 -0.0049(5) 0
Na2 Na1+ 0.0229(5) 0.0332(7) 0.0150(5) 0 0 -0.0097(5)
Mg1 Mg2+ 0.0078(3) 0.0067(3) 0.0075(3) 0 0.0007(2) 0
Al1 Al3+ 0.0082(3) 0.0073(3) 0.0076(3) 0 0 -0.0018(2)
F1 F1- 0.0109(11) 0.0195(11) 0.0164(11) 0 0 0
F2 F1- 0.0056(10) 0.0196(11) 0.0096(11) 0 0 0
F3 F1- 0.0222(11) 0.0153(10) 0.0113(10) 0 0 0.0006(10)
F4 F1- 0.0151(10) 0.0174(10) 0.0084(10) 0 0 0.002(1)
F5 F1- 0.0129(9) 0.0159(10) 0.0154(10) -0.0001(9) 0.0014(9) -0.0094(9)
F6 F1- 0.0136(9) 0.0109(9) 0.0189(10) -0.0067(9) 0.0022(9) 0.0026(9)
#End of TTdata_33509-ICSD