
#(C) 2019 by FIZ Karlsruhe - Leibniz Institute for Information Infrastructure.  All rights reserved.
data_33511-ICSD
_database_code_ICSD 33511
_audit_creation_date 1982-12-31
_audit_update_record 2012-08-01
_chemical_name_systematic 'Disodium magnesium aluminium fluoride'
_chemical_formula_structural 'Na2 Mg Al F7'
_chemical_formula_sum 'Al1 F7 Mg1 Na2'
_chemical_name_mineral Weberite
_exptl_crystal_density_diffrn 2.99
_publ_section_title 'What is the true space group of weberite?'
loop_
_citation_id
_citation_journal_full
_citation_year
_citation_journal_volume
_citation_page_first
_citation_page_last
_citation_journal_id_ASTM
primary 'Journal of Solid State Chemistry' 1982 43 213 221 JSSCBI
loop_
_publ_author_name
'Knop, O.'
'Cameron, T.S.'
'Jochem, K.'
_cell_length_a 7.051(1)
_cell_length_b 9.968(2)
_cell_length_c 7.285(1)
_cell_angle_alpha 90.
_cell_angle_beta 90.
_cell_angle_gamma 90.
_cell_volume 512.02
_cell_formula_units_Z 4
_symmetry_space_group_name_H-M 'I 21 21 21'
_symmetry_Int_Tables_number 24
_refine_ls_R_factor_all 0.021
loop_
_symmetry_equiv_pos_site_id
_symmetry_equiv_pos_as_xyz
1 'x+1/2, -y+1/2, -z'
2 '-x, y+1/2, -z+1/2'
3 '-x+1/2, -y, z+1/2'
4 'x, y, z'
5 'x, -y, -z+1/2'
6 '-x+1/2, y, -z'
7 '-x, -y+1/2, z'
8 'x+1/2, y+1/2, z+1/2'
loop_
_atom_type_symbol
_atom_type_oxidation_number
Na1+ 1
Mg2+ 2
Al3+ 3
F1- -1
loop_
_atom_site_label
_atom_site_type_symbol
_atom_site_symmetry_multiplicity
_atom_site_Wyckoff_symbol
_atom_site_fract_x
_atom_site_fract_y
_atom_site_fract_z
_atom_site_B_iso_or_equiv
_atom_site_occupancy
_atom_site_attached_hydrogens
Na1 Na1+ 4 b 0.25 0.2503(7) 0 . 1. 0
Na2 Na1+ 4 a -.0027(6) 0.5 0.25 . 1. 0
Mg1 Mg2+ 4 b 0.25 0.2506(5) 0.5 . 1. 0
Al1 Al3+ 4 a 0.0000(4) 0.5 0.75 . 1. 0
F1 F1- 4 c 0 0.25 0.3863(1) . 1. 0
F2 F1- 8 d -.0016(6) 0.4148(1) 0.9709(1) . 1. 0
F3 F1- 8 d 0.1830(3) 0.3859(3) 0.6818(4) . 1. 0
F4 F1- 8 d -.3150(3) 0.3888(3) 0.3209(4) . 1. 0
loop_
_atom_site_aniso_label
_atom_site_aniso_type_symbol
_atom_site_aniso_U_11
_atom_site_aniso_U_22
_atom_site_aniso_U_33
_atom_site_aniso_U_12
_atom_site_aniso_U_13
_atom_site_aniso_U_23
Na1 Na1+ 0.0177(5) 0.0192(5) 0.0553(7) 0 -0.0045(4) 0
Na2 Na1+ 0.0219(5) 0.0333(6) 0.0149(4) 0 0 0.0095(3)
Mg1 Mg2+ 0.0074(3) 0.0063(3) 0.0071(3) 0 -0.0008(2) 0
Al1 Al3+ 0.0078(3) 0.0070(3) 0.0075(3) 0 0 -0.0018(2)
F1 F1- 0.0078(5) 0.0191(6) 0.0127(5) -0.0029(7) 0 0
F2 F1- 0.0184(4) 0.0159(4) 0.0095(3) 0.0035(17) 0.0004(18) 0.0014(3)
F3 F1- 0.0145(10) 0.0128(16) 0.0180(16) 0.0098(10) 0.0009(13) -0.0061(13)
F4 F1- 0.115(10) 0.0135(17) 0.0155(14) -0.0032(10) 0.0025(12) -0.0083(13)
#End of TTdata_33511-ICSD