
#(C) 2019 by FIZ Karlsruhe - Leibniz Institute for Information Infrastructure.  All rights reserved.
data_33535-ICSD
_database_code_ICSD 33535
_audit_creation_date 1982-12-31
_chemical_name_systematic 'Sodium triphosphate hexahydrate'
_chemical_formula_structural 'Na5 P3 O10 (H2 O)6'
_chemical_formula_sum 'H12 Na5 O16 P3'
_exptl_crystal_density_diffrn 2.04
_publ_section_title 'Kristallstruktur von Na5P3O10*6H2O'
loop_
_citation_id
_citation_journal_full
_citation_year
_citation_journal_volume
_citation_page_first
_citation_page_last
_citation_journal_id_ASTM
primary 'Zeitschrift fuer Anorganische und Allgemeine Chemie (1950) (DE)' 1982
488 80 86 ZAACAB
loop_
_publ_author_name
'Wiench, D.M.'
'Jansen, M.'
'Hoppe, R.'
_cell_length_a 10.370(2)
_cell_length_b 9.848(4)
_cell_length_c 7.615(3)
_cell_angle_alpha 92.24(7)
_cell_angle_beta 94.55(9)
_cell_angle_gamma 90.87(6)
_cell_volume 774.5
_cell_formula_units_Z 2
_symmetry_space_group_name_H-M 'P -1'
_symmetry_Int_Tables_number 2
_refine_ls_R_factor_all 0.0533
loop_
_symmetry_equiv_pos_site_id
_symmetry_equiv_pos_as_xyz
1 '-x, -y, -z'
2 'x, y, z'
loop_
_atom_type_symbol
_atom_type_oxidation_number
P5+ 5
Na1+ 1
O2- -2
H1+ 1
loop_
_atom_site_label
_atom_site_type_symbol
_atom_site_symmetry_multiplicity
_atom_site_Wyckoff_symbol
_atom_site_fract_x
_atom_site_fract_y
_atom_site_fract_z
_atom_site_B_iso_or_equiv
_atom_site_occupancy
_atom_site_attached_hydrogens
P1 P5+ 2 i 0.6089(1) 0.2533(2) 0.7410(2) . 1. 0
P2 P5+ 2 i 0.8524(1) 0.2659(1) 0.9519(2) . 1. 0
P3 P5+ 2 i 0.0040(1) 0.2372(2) 0.2811(2) . 1. 0
Na1 Na1+ 2 i 0.1198(2) 0.0658(2) 0.9113(3) . 1. 0
Na2 Na1+ 2 i 0.1336(2) 0.4116(2) 0.9498(3) . 1. 0
Na3 Na1+ 2 i 0.8611(2) 0.0627(2) 0.5843(3) . 1. 0
Na4 Na1+ 2 i 0.3425(2) 0.2416(3) 0.2297(3) . 1. 0
Na5 Na1+ 2 i 0.8536(2) 0.4508(2) 0.5773(3) . 1. 0
O1 O2- 2 i 0.6974(3) 0.2686(4) 0.9316(5) . 1. 0
O2 O2- 2 i 0.8726(3) 0.2875(4) 0.1615(5) . 1. 0
O3 O2- 2 i 0.9074(4) 0.3891(4) 0.8710(5) . 1. 0
O4 O2- 2 i 0.8978(4) 0.1288(4) 0.8936(5) . 1. 0
O5 O2- 2 i 0.5235(4) 0.3782(4) 0.7429(5) . 1. 0
O6 O2- 2 i 0.5324(4) 0.1207(4) 0.7502(6) . 1. 0
O7 O2- 2 i 0.7043(4) 0.2512(4) 0.6004(5) . 1. 0
O8 O2- 2 i 0.0156(4) 0.3411(4) 0.4351(5) . 1. 0
O9 O2- 2 i 0.9716(4) 0.0950(4) 0.3332(5) . 1. 0
O10 O2- 2 i 0.1136(4) 0.2443(4) 0.1611(5) . 1. 0
O11 O2- 2 i 0.1670(4) 0.2514(5) 0.7154(6) . 1. 0
O12 O2- 2 i 0.3449(4) 0.0651(4) 0.9585(6) . 1. 0
O13 O2- 2 i 0.3562(4) 0.4149(4) 0.0095(6) . 1. 0
O14 O2- 2 i 0.3449(4) 0.4288(4) 0.4540(6) . 1. 0
O15 O2- 2 i 0.5675(5) 0.2429(7) 0.2658(7) . 1. 0
O16 O2- 2 i 0.6582(4) 0.9278(4) 0.5435(6) . 1. 0
H1 H1+ 2 i 0.1247(31) 0.2781(32) 0.6285(33) 0.0702(35) 1. 0
H2 H1+ 2 i 0.2304(30) 0.2397(31) 0.6736(33) 0.0596(35) 1. 0
H3 H1+ 2 i 0.4069(29) 0.0895(30) 0.9098(32) 0.0312(35) 1. 0
H4 H1+ 2 i 0.3749(31) 0.0265(32) 0.0474(33) 0.0734(35) 1. 0
H5 H1+ 2 i 0.4177(31) 0.3963(32) 0.9214(33) 0.0689(35) 1. 0
H6 H1+ 2 i 0.3769(32) 0.4747(32) 0.0590(33) 0.0847(35) 1. 0
H7 H1+ 2 i 0.3909(29) 0.4283(29) 0.5339(31) 0.0175(34) 1. 0
H8 H1+ 2 i 0.4015(32) 0.4740(32) 0.3953(33) 0.0812(35) 1. 0
H9 H1+ 2 i 0.6120(31) 0.2426(32) 0.1967(33) 0.0612(35) 1. 0
H10 H1+ 2 i 0.6145(32) 0.2551(33) 0.3512(33) 0.1107(35) 1. 0
H11 H1+ 2 i 0.5989(30) 0.9207(31) 0.4585(32) 0.0488(35) 1. 0
H12 H1+ 2 i 0.6309(31) 0.9946(31) 0.5886(33) 0.0636(35) 1. 0
loop_
_atom_site_aniso_label
_atom_site_aniso_type_symbol
_atom_site_aniso_U_11
_atom_site_aniso_U_22
_atom_site_aniso_U_33
_atom_site_aniso_U_12
_atom_site_aniso_U_13
_atom_site_aniso_U_23
P1 P5+ 0.0119(7) 0.0150(8) 0.0099(8) 0.0003(6) 0.0001(6) 0.0003(6)
P2 P5+ 0.0088(7) 0.0098(7) 0.0106(7) 0.0001(6) -.0001(6) -.0003(6)
P3 P5+ 0.0102(7) 0.0125(7) 0.0081(7) 0.0014(6) -.0002(6) 0.0013(6)
Na1 Na1+ 0.0174(12) 0.0192(12) 0.0250(13) 0.0024(10) 0.0025(10) -.0009(11)
Na2 Na1+ 0.0169(11) 0.0211(12) 0.0237(13) -.0033(10) 0.0031(10) -.0016(11)
Na3 Na1+ 0.0239(13) 0.0254(13) 0.0170(12) 0.0051(10) 0.005(1) 0.0006(11)
Na4 Na1+ 0.0212(12) 0.0280(13) 0.0257(13) -.0003(10) 0.0020(11) 0.0017(11)
Na5 Na1+ 0.0207(12) 0.0203(12) 0.0210(13) 0.0018(10) 0.005(1) 0.0039(10)
O1 O2- 0.0067(16) 0.0248(19) 0.0096(17) 0.0020(15) 0.0001(14) -.0010(15)
O2 O2- 0.0091(16) 0.0227(18) 0.0100(17) 0.0021(15) -.0017(14) -.0032(15)
O3 O2- 0.0141(17) 0.0166(18) 0.0144(18) -.0012(15) -.0012(15) 0.0017(16)
O4 O2- 0.0177(18) 0.0162(18) 0.0140(18) 0.0046(15) -.0003(15) 0.0018(16)
O5 O2- 0.0195(18) 0.0265(20) 0.0174(19) 0.0123(16) 0.0015(16) 0.0046(17)
O6 O2- 0.0204(19) 0.0229(19) 0.0211(20) -.0123(16) 0.0029(17) -.0002(17)
O7 O2- 0.0170(18) 0.0230(19) 0.0101(18) -.0014(16) 0.0036(15) 0.0003(16)
O8 O2- 0.0207(18) 0.0185(18) 0.0104(18) 0.0030(16) 0.0004(15) -.0068(15)
O9 O2- 0.0170(18) 0.0093(17) 0.0214(19) 0.0014(15) 0.0021(16) 0.0067(16)
O10 O2- 0.0149(17) 0.0206(19) 0.0143(18) 0.0022(15) 0.0003(17) 0.0037(16)
O11 O2- 0.0349(22) 0.0416(23) 0.0178(20) 0.0050(19) 0.0035(17) 0.0052(19)
O12 O2- 0.0200(19) 0.0312(21) 0.0298(21) 0.0053(17) 0.0076(17) 0.0103(19)
O13 O2- 0.0189(19) 0.0282(21) 0.0300(21) -.0032(17) 0.0075(17) -.0042(21)
O14 O2- 0.0241(20) 0.0300(21) 0.0246(21) -.0007(17) -.0044(18) 0.0017(18)
O15 O2- 0.0229(21) 0.1300(31) 0.0236(23) 0.0010(24) 0.0045(20) 0.0022(25)
O16 O2- 0.0236(20) 0.0258(20) 0.0335(22) 0.0013(17) -.0014(18) -.0005(19)
#End of TTdata_33535-ICSD