
#(C) 2019 by FIZ Karlsruhe - Leibniz Institute for Information Infrastructure.  All rights reserved.
data_33638-ICSD
_database_code_ICSD 33638
_audit_creation_date 1980-01-01
_audit_update_record 2010-08-01
_chemical_name_systematic 'Disodium dizinc tris(tellurate(IV))'
_chemical_formula_structural 'Na2 Zn2 (Te O3)3'
_chemical_formula_sum 'Na2 O9 Te3 Zn2'
_chemical_name_structure_type Zemannite-frame
_chemical_name_mineral Zemannite
_exptl_crystal_density_diffrn 3.99
_publ_section_title

;
Die Kristallstruktur eines unbenannten zeolithaltigen Telluritminerals, (Zn,
Fe)2 (Te O3)3) Nax H2-x (H2 O)y
;
loop_
_citation_id
_citation_journal_full
_citation_year
_citation_journal_volume
_citation_page_first
_citation_page_last
_citation_journal_id_ASTM
primary 'Tschermaks Mineralogische und Petrographische Mitteilungen' 1967 12 108
117 MPMTAG
loop_
_publ_author_name
'Matzat, E.'
_cell_length_a 9.41(2)
_cell_length_b 9.41(2)
_cell_length_c 7.64(2)
_cell_angle_alpha 90.
_cell_angle_beta 90.
_cell_angle_gamma 120.
_cell_volume 585.87
_cell_formula_units_Z 2
_symmetry_space_group_name_H-M 'P 63/m'
_symmetry_Int_Tables_number 176
_refine_ls_R_factor_all 0.081
loop_
_symmetry_equiv_pos_site_id
_symmetry_equiv_pos_as_xyz
1 '-x+y, -x, -z+1/2'
2 '-y, x-y, -z+1/2'
3 'x, y, -z+1/2'
4 'x-y, x, -z'
5 'y, -x+y, -z'
6 '-x, -y, -z'
7 'x-y, x, z+1/2'
8 'y, -x+y, z+1/2'
9 '-x, -y, z+1/2'
10 '-x+y, -x, z'
11 '-y, x-y, z'
12 'x, y, z'
loop_
_atom_type_symbol
_atom_type_oxidation_number
Zn2+ 2
Te4+ 4
O2- -2
Na1+ 1
loop_
_atom_site_label
_atom_site_type_symbol
_atom_site_symmetry_multiplicity
_atom_site_Wyckoff_symbol
_atom_site_fract_x
_atom_site_fract_y
_atom_site_fract_z
_atom_site_B_iso_or_equiv
_atom_site_occupancy
_atom_site_attached_hydrogens
Zn1 Zn2+ 4 f 0.3333 0.6667 0.0593(7) 1.42(4) 1. 0
Te1 Te4+ 6 h 0.4978(2) 0.4571(2) 0.25 1.28(7) 1. 0
O1 O2- 6 h 0.1636(26) 0.5019(26) 0.25 1.56(34) 1. 0
O2 O2- 12 i 0.4908(18) 0.1441(18) 0.0678(22) 1.32(22) 1. 0
Na1 Na1+ 2 b 0 0 0 2.(22) 0.1053 0
Na2 Na1+ 6 h 0.135 0.285 0.25 2.(22) 0.1053 0
Na3 Na1+ 6 h 0.288 0.061 0.25 2.(22) 0.1053 0
Na4 Na1+ 12 i 0.2 0.12 0.019 2.(22) 0.1053 0
Na5 Na1+ 12 i 0.065 0.195 0.16 2.(22) 0.1053 0
#End of TTdata_33638-ICSD