
#(C) 2019 by FIZ Karlsruhe - Leibniz Institute for Information Infrastructure.  All rights reserved.
data_33763-ICSD
_database_code_ICSD 33763
_audit_creation_date 1991-07-10
_audit_update_record 2012-08-01
_chemical_name_systematic 'Sodium ferrate(III) - beta'
_chemical_formula_structural 'Na (Fe O2)'
_chemical_formula_sum 'Fe1 Na1 O2'
_chemical_name_structure_type NaFeO2(beta)
_exptl_crystal_density_diffrn 3.37
_cell_measurement_temperature 298.
_publ_section_title

;
A neutron powder diffraction study of the beta to gamma phase transformation
in Na Fe O2
;
loop_
_citation_id
_citation_journal_full
_citation_year
_citation_journal_volume
_citation_page_first
_citation_page_last
_citation_journal_id_ASTM
primary 'Zeitschrift fuer Kristallographie' 1990 193 51 69 ZEKRDZ
loop_
_publ_author_name
'Grey, I.E.'
'Hill, R.J.'
'Hewat, A.W.'
_cell_length_a 5.6751(2)
_cell_length_b 5.3863(2)
_cell_length_c 7.1443(2)
_cell_angle_alpha 90.
_cell_angle_beta 90.
_cell_angle_gamma 90.
_cell_volume 218.39
_cell_formula_units_Z 4
_symmetry_space_group_name_H-M 'P n 21 a'
_symmetry_Int_Tables_number 33
_refine_ls_R_factor_all 0.062
loop_
_symmetry_equiv_pos_site_id
_symmetry_equiv_pos_as_xyz
1 'x+1/2, y, -z+1/2'
2 '-x+1/2, y+1/2, z+1/2'
3 '-x, y+1/2, -z'
4 'x, y, z'
loop_
_atom_type_symbol
_atom_type_oxidation_number
Fe3+ 3
Na1+ 1
O2- -2
loop_
_atom_site_label
_atom_site_type_symbol
_atom_site_symmetry_multiplicity
_atom_site_Wyckoff_symbol
_atom_site_fract_x
_atom_site_fract_y
_atom_site_fract_z
_atom_site_B_iso_or_equiv
_atom_site_occupancy
_atom_site_attached_hydrogens
Fe1 Fe3+ 4 a 0.0685(3) 0 0.1251(3) . 1. 0
Na1 Na1+ 4 a 0.426(1) 0.515(1) 0.122(1) . 1. 0
O1 O2- 4 a 0.0359(5) 0.6616(6) 0.0862(5) . 1. 0
O2 O2- 4 a 0.3840(6) 0.0833(6) 0.1634(5) . 1. 0
loop_
_atom_site_aniso_label
_atom_site_aniso_type_symbol
_atom_site_aniso_beta_11
_atom_site_aniso_beta_22
_atom_site_aniso_beta_33
_atom_site_aniso_beta_12
_atom_site_aniso_beta_13
_atom_site_aniso_beta_23
Fe1 Fe3+ 0.0059(4) 0.0032(5) 0.0029(3) 0.0010(5) 0.0033(4) 0.0016(4)
Na1 Na1+ 0.010(1) 0.024(2) 0.018(1) 0.001(2) -.003(1) -.013(2)
O1 O2- 0.019(1) 0.009(1) 0.0070(9) -.0043(9) -.0007(8) -.0067(7)
O2 O2- 0.0043(8) 0.016(1) 0.0072(7) -.0007(7) -.0031(6) -.0009(7)
#End of TTdata_33763-ICSD