
#(C) 2019 by FIZ Karlsruhe - Leibniz Institute for Information Infrastructure.  All rights reserved.
data_33868-ICSD
_database_code_ICSD 33868
_audit_creation_date 1992-01-20
_chemical_name_systematic 'Dirubidium trisodium tetraoxoindate'
_chemical_formula_structural 'Rb2 Na3 (In O4)'
_chemical_formula_sum 'In1 Na3 O4 Rb2'
_chemical_name_structure_type Li3Na2GaO4
_exptl_crystal_density_diffrn 4.04
_publ_section_title

;
Neue Vertreter des A2A3'(MO4)-Typs: Rb2Na3(InO4), Cs2Na3(InO4) und
Cs2Na3(TlO4)
;
loop_
_citation_id
_citation_journal_full
_citation_year
_citation_journal_volume
_citation_page_first
_citation_page_last
_citation_journal_id_ASTM
primary 'Zeitschrift fuer Anorganische und Allgemeine Chemie (1950) (DE)' 1991
595 95 114 ZAACAB
loop_
_publ_author_name
'Glaum, H.'
'Hoppe, R.'
_cell_length_a 9.711(1)
_cell_length_b 9.500(1)
_cell_length_c 7.459(1)
_cell_angle_alpha 90.
_cell_angle_beta 90.
_cell_angle_gamma 90.
_cell_volume 688.13
_cell_formula_units_Z 4
_symmetry_space_group_name_H-M 'P n n m'
_symmetry_Int_Tables_number 58
_refine_ls_R_factor_all 0.045
loop_
_symmetry_equiv_pos_site_id
_symmetry_equiv_pos_as_xyz
1 'x+1/2, -y+1/2, z+1/2'
2 '-x+1/2, y+1/2, z+1/2'
3 'x, y, -z'
4 '-x, -y, -z'
5 '-x+1/2, y+1/2, -z+1/2'
6 'x+1/2, -y+1/2, -z+1/2'
7 '-x, -y, z'
8 'x, y, z'
loop_
_atom_type_symbol
_atom_type_oxidation_number
In3+ 3
Rb1+ 1
Na1+ 1
O2- -2
loop_
_atom_site_label
_atom_site_type_symbol
_atom_site_symmetry_multiplicity
_atom_site_Wyckoff_symbol
_atom_site_fract_x
_atom_site_fract_y
_atom_site_fract_z
_atom_site_B_iso_or_equiv
_atom_site_occupancy
_atom_site_attached_hydrogens
In1 In3+ 4 g 0.1286 0.2245 0.5 . 1. 0
Rb1 Rb1+ 4 g 0.7397(1) 0.7672(1) 0 . 1. 0
Rb2 Rb1+ 4 f 0.5 0 0.2542(1) . 1. 0
Na1 Na1+ 8 h 0.6484(3) 0.5197(2) 0.2487(3) . 1. 0
Na2 Na1+ 4 g 0.0775(3) 0.7626(3) 0 . 1. 0
O1 O2- 4 g 0.2229(5) 0.4215(6) 0.5 . 1. 0
O2 O2- 8 h 0.4821(4) 0.6952(5) 0.2324(5) . 1. 0
O3 O2- 4 g 0.2231(5) 0.5630(6) 0 . 1. 0
loop_
_atom_site_aniso_label
_atom_site_aniso_type_symbol
_atom_site_aniso_U_11
_atom_site_aniso_U_22
_atom_site_aniso_U_33
_atom_site_aniso_U_12
_atom_site_aniso_U_13
_atom_site_aniso_U_23
In1 In3+ 0.0038(2) 0.0077(2) 0.0066(2) 0.0000(2) 0 0
Rb1 Rb1+ 0.0185(4) 0.0250(5) 0.0360(5) -.0025(3) 0 0
Rb2 Rb1+ 0.0323(5) 0.0283(5) 0.0313(5) -.0004(4) 0 0
Na1 Na1+ 0.0134(10) 0.0161(11) 0.0149(10) 0.0008(8) -.0013(7) -.0023(7)
Na2 Na1+ 0.0109(13) 0.0172(15) 0.0092(12) 0.0024(11) 0 0
O1 O2- 0.0067(21) 0.0137(25) 0.0140(21) -.0025(18) 0 0
O2 O2- 0.0136(18) 0.0126(18) 0.0138(16) -.0004(13) -.0060(13) -.0016(12)
O3 O2- 0.0030(19) 0.0146(26) 0.0130(21) -.0008(17) 0 0
#End of TTdata_33868-ICSD