
#(C) 2019 by FIZ Karlsruhe - Leibniz Institute for Information Infrastructure.  All rights reserved.
data_33889-ICSD
_database_code_ICSD 33889
_audit_creation_date 1992-01-20
_audit_update_record 2013-08-01
_chemical_name_systematic 'Disodium tetrafluoropalladate'
_chemical_formula_structural 'Na2 (Pd F4)'
_chemical_formula_sum 'F4 Na2 Pd1'
_chemical_name_structure_type Na2PdF4
_exptl_crystal_density_diffrn 3.98
_publ_section_title
'Neue Fluoropalladate(II) M2(PdF4) (M = Na, K) sowie K2RbPdF5'
loop_
_citation_id
_citation_journal_full
_citation_year
_citation_journal_volume
_citation_page_first
_citation_page_last
_citation_journal_id_ASTM
primary 'Zeitschrift fuer Anorganische und Allgemeine Chemie (1950) (DE)' 1991
597 9 18 ZAACAB
loop_
_publ_author_name
'Bachmann, B.'
'Mueller, B.G.'
_cell_length_a 3.4088(7)
_cell_length_b 5.611(1)
_cell_length_c 9.992(2)
_cell_angle_alpha 90.
_cell_angle_beta 93.97(2)
_cell_angle_gamma 90.
_cell_volume 190.66
_cell_formula_units_Z 2
_symmetry_space_group_name_H-M 'P 1 21/c 1'
_symmetry_Int_Tables_number 14
_refine_ls_R_factor_all 0.0453
loop_
_symmetry_equiv_pos_site_id
_symmetry_equiv_pos_as_xyz
1 'x, -y+1/2, z+1/2'
2 '-x, -y, -z'
3 '-x, y+1/2, -z+1/2'
4 'x, y, z'
loop_
_atom_type_symbol
_atom_type_oxidation_number
Na1+ 1
Pd2+ 2
F1- -1
loop_
_atom_site_label
_atom_site_type_symbol
_atom_site_symmetry_multiplicity
_atom_site_Wyckoff_symbol
_atom_site_fract_x
_atom_site_fract_y
_atom_site_fract_z
_atom_site_B_iso_or_equiv
_atom_site_occupancy
_atom_site_attached_hydrogens
Na1 Na1+ 4 e 0.2814(6) 0.5413(4) 0.8464(2) . 1. 0
Pd1 Pd2+ 2 a 0 0 0 . 1. 0
F1 F1- 4 e 0.2170(9) 0.6991(6) 0.0755(4) . 1. 0
F2 F1- 4 e 0.2137(9) 0.1798(6) 0.1589(3) . 1. 0
loop_
_atom_site_aniso_label
_atom_site_aniso_type_symbol
_atom_site_aniso_U_11
_atom_site_aniso_U_22
_atom_site_aniso_U_33
_atom_site_aniso_U_12
_atom_site_aniso_U_13
_atom_site_aniso_U_23
Na1 Na1+ 0.0172(9) 0.0132(11) 0.0233(10) 0.0018(8) -.0005(8) -.0029(8)
Pd1 Pd2+ 0.0121(2) 0.0098(2) 0.0129(2) 0.0002(4) 0.0002(2) 0.0003(4)
F1 F1- 0.0180(13) 0.0168(13) 0.0264(15) 0.0025(11) -.0020(12) 0.0081(13)
F2 F1- 0.0235(14) 0.0170(13) 0.0152(13) -.0028(12) -.0033(12) -.0018(12)
#End of TTdata_33889-ICSD