
#(C) 2019 by FIZ Karlsruhe - Leibniz Institute for Information Infrastructure.  All rights reserved.
data_33986-ICSD
_database_code_ICSD 33986
_audit_creation_date 1992-01-20
_audit_update_record 2006-04-01
_chemical_name_systematic 'Sodium deuteriumsulfide - LT'
_chemical_formula_structural 'Na (D S)'
_chemical_formula_sum 'D1 Na1 S1'
_chemical_name_structure_type KOH
_exptl_crystal_density_diffrn 1.86
_cell_measurement_temperature 9.
_publ_section_title

;
Dynamik linearer Molekuelanionen in den Hydrogensulfiden von Natrium, Kalium
und Rubidium: Differential-Scanning-Kalorimetrie, Roentgen- und
Neutronenbeugung
;
loop_
_citation_id
_citation_journal_full
_citation_year
_citation_journal_volume
_citation_page_first
_citation_page_last
_citation_journal_id_ASTM
primary 'Zeitschrift fuer Anorganische und Allgemeine Chemie (1950) (DE)' 1991
598 175 192 ZAACAB
loop_
_publ_author_name
'Jacobs, H.'
'Metzner, U.'
'Kirchgaessner, R.'
'Lutz, H.D.'
'Beckenkamp, K.'
_cell_length_a 3.911(1)
_cell_length_b 4.447(1)
_cell_length_c 5.930(2)
_cell_angle_alpha 90.
_cell_angle_beta 99.55(2)
_cell_angle_gamma 90.
_cell_volume 101.71
_cell_formula_units_Z 2
_symmetry_space_group_name_H-M 'P 1 21/m 1'
_symmetry_Int_Tables_number 11
_refine_ls_R_factor_all 0.036
loop_
_symmetry_equiv_pos_site_id
_symmetry_equiv_pos_as_xyz
1 'x, -y+1/2, z'
2 '-x, -y, -z'
3 '-x, y+1/2, -z'
4 'x, y, z'
loop_
_atom_type_symbol
_atom_type_oxidation_number
Na1+ 1
S2- -2
D1+ 1
loop_
_atom_site_label
_atom_site_type_symbol
_atom_site_symmetry_multiplicity
_atom_site_Wyckoff_symbol
_atom_site_fract_x
_atom_site_fract_y
_atom_site_fract_z
_atom_site_B_iso_or_equiv
_atom_site_occupancy
_atom_site_attached_hydrogens
Na1 Na1+ 2 e 0.225(3) 0.25 0.770(2) 0.3(3) 1. 0
S1 S2- 2 e 0.239(3) 0.25 0.244(2) 0.5(4) 1. 0
D1 D1+ 2 e 0.539(2) 0.25 0.395(2) 3.5(3) 1. 0
#End of TTdata_33986-ICSD