
#(C) 2019 by FIZ Karlsruhe - Leibniz Institute for Information Infrastructure.  All rights reserved.
data_34062-ICSD
_database_code_ICSD 34062
_audit_creation_date 1980-01-01
_audit_update_record 1984-11-02
_chemical_name_systematic 'Sodium calcium gallium disilicate'
_chemical_formula_structural 'Na Ca Ga (Si2 O7)'
_chemical_formula_sum 'Ca1 Ga1 Na1 O7 Si2'
_chemical_name_structure_type Melilite-Ca2MgSi2O7
_exptl_crystal_density_diffrn 3.33
_publ_section_title

;
Synthese und roentgenographische Untersuchung der beiden mit den Mililithen
isotypen Silikate (Na Ca) Al (Si2 O7) und (Na Ca) Ga (Si2 O)7
;
loop_
_citation_id
_citation_journal_full
_citation_year
_citation_journal_volume
_citation_page_first
_citation_page_last
_citation_journal_id_ASTM
primary

;
Anzeiger der Oesterreichischen Akademie der Wissenschaften,
Mathematisch-Naturwissenschaftliche Klasse
; 1968 105 361 364 OSAWA8
loop_
_publ_author_name
'Schichl, H.'
'Raaz, F.'
_cell_length_a 7.713(4)
_cell_length_b 7.713(4)
_cell_length_c 5.052(3)
_cell_angle_alpha 90.
_cell_angle_beta 90.
_cell_angle_gamma 90.
_cell_volume 300.55
_cell_formula_units_Z 2
_symmetry_space_group_name_H-M 'P -4 21 m'
_symmetry_Int_Tables_number 113
_refine_ls_R_factor_all 0.047
loop_
_symmetry_equiv_pos_site_id
_symmetry_equiv_pos_as_xyz
1 '-y+1/2, -x+1/2, z'
2 'y, -x, -z'
3 'y+1/2, x+1/2, z'
4 '-y, x, -z'
5 'x+1/2, -y+1/2, -z'
6 '-x, -y, z'
7 '-x+1/2, y+1/2, -z'
8 'x, y, z'
loop_
_atom_type_symbol
_atom_type_oxidation_number
Ga3+ 3
Si4+ 4
Ca2+ 2
Na1+ 1
O2- -2
loop_
_atom_site_label
_atom_site_type_symbol
_atom_site_symmetry_multiplicity
_atom_site_Wyckoff_symbol
_atom_site_fract_x
_atom_site_fract_y
_atom_site_fract_z
_atom_site_B_iso_or_equiv
_atom_site_occupancy
_atom_site_attached_hydrogens
Ga1 Ga3+ 2 a 0 0 0 1.38 1. 0
Si1 Si4+ 4 e 0.3591(7) 0.8591(7) 0.9500(7) 1.1 1. 0
Ca1 Ca2+ 4 e 0.1601(10) 0.6601(10) 0.5113(12) 1.54 0.5 0
Na1 Na1+ 4 e 0.1601(10) 0.6601(10) 0.5113(12) 1.54 0.5 0
O1 O2- 2 c 0 0.5 0.1773(26) 1.34 1. 0
O2 O2- 4 e 0.3546(20) 0.8546(20) 0.2594(19) 1.74 1. 0
O3 O2- 8 f 0.0870(9) 0.1795(9) 0.1925(18) 1.57 1. 0
#End of TTdata_34062-ICSD