
#(C) 2019 by FIZ Karlsruhe - Leibniz Institute for Information Infrastructure.  All rights reserved.
data_34113-ICSD
_database_code_ICSD 34113
_audit_creation_date 1986-10-02
_audit_update_record 2006-04-01
_chemical_name_systematic 'Disodium tetrafluoroberyllate'
_chemical_formula_structural 'Na2 (Be F4)'
_chemical_formula_sum 'Be1 F4 Na2'
_chemical_name_structure_type Olivine-Mg2SiO4
_exptl_crystal_density_diffrn 2.49
_publ_section_title 'Beitraege zu Kristallstrukturen vom Olivin-Typ'
loop_
_citation_id
_citation_journal_full
_citation_year
_citation_journal_volume
_citation_page_first
_citation_page_last
_citation_journal_id_ASTM
primary 'Beitraege zur Mineralogie und Petrographie' 1965 11 535 558 BMUPA4
loop_
_publ_author_name
'Hanke, K.'
_cell_length_a 4.89(2)
_cell_length_b 10.90(4)
_cell_length_c 6.56(2)
_cell_angle_alpha 90.
_cell_angle_beta 90.
_cell_angle_gamma 90.
_cell_volume 349.65
_cell_formula_units_Z 4
_symmetry_space_group_name_H-M 'P b n m'
_symmetry_Int_Tables_number 62
_refine_ls_R_factor_all 0.075
loop_
_symmetry_equiv_pos_site_id
_symmetry_equiv_pos_as_xyz
1 '-x+1/2, y+1/2, z'
2 'x, y, -z+1/2'
3 'x+1/2, -y+1/2, z+1/2'
4 '-x, -y, -z'
5 'x+1/2, -y+1/2, -z'
6 '-x, -y, z+1/2'
7 '-x+1/2, y+1/2, -z+1/2'
8 'x, y, z'
loop_
_atom_type_symbol
_atom_type_oxidation_number
Na1+ 1
Be2+ 2
F1- -1
loop_
_atom_site_label
_atom_site_type_symbol
_atom_site_symmetry_multiplicity
_atom_site_Wyckoff_symbol
_atom_site_fract_x
_atom_site_fract_y
_atom_site_fract_z
_atom_site_B_iso_or_equiv
_atom_site_occupancy
_atom_site_attached_hydrogens
Na1 Na1+ 4 a 0 0 0 0.95 1. 0
Na2 Na1+ 4 c 0.0115(17) 0.2805(7) 0.75 0.95 1. 0
Be1 Be2+ 4 c 0.0700(39) 0.4050(18) 0.25 0.7 1. 0
F1 F1- 4 c 0.2590(22) 0.094(1) 0.75 0.9 1. 0
F2 F1- 4 c 0.3040(22) 0.0365(10) 0.25 0.9 1. 0
F3 F1- 8 d 0.1940(22) 0.339(1) 0.4400(17) 0.9 1. 0
#End of TTdata_34113-ICSD