
#(C) 2019 by FIZ Karlsruhe - Leibniz Institute for Information Infrastructure.  All rights reserved.
data_34565-ICSD
_database_code_ICSD 34565
_audit_creation_date 1980-01-01
_audit_update_record 2012-08-01
_chemical_name_systematic 'Disodium zinc silicate - d-phase'
_chemical_formula_structural 'Na2 Zn (Si O4)'
_chemical_formula_sum 'Na2 O4 Si1 Zn1'
_exptl_crystal_density_diffrn 3.37
_publ_section_title

;
Crystal structures of Na2 Zn (Si O4) and Na2 Be (Si O4), refined with
allowance for thermal vibration anisotropy of the atoms
;
loop_
_citation_id
_citation_journal_full
_citation_year
_citation_journal_volume
_citation_page_first
_citation_page_last
_citation_journal_id_ASTM
primary Kristallografiya 1979 24 1177 1183 KRISAJ
loop_
_publ_author_name
'Plakhov, G.F.'
'Belov, N.V.'
_cell_length_a 5.248(1)
_cell_length_b 7.025(2)
_cell_length_c 5.445(1)
_cell_angle_alpha 90.
_cell_angle_beta 90.
_cell_angle_gamma 89.77(2)
_cell_volume 200.74
_cell_formula_units_Z 2
_symmetry_space_group_name_H-M 'P 1 1 n'
_symmetry_Int_Tables_number 7
_refine_ls_R_factor_all 0.037
loop_
_symmetry_equiv_pos_site_id
_symmetry_equiv_pos_as_xyz
1 'x+1/2, y+1/2, -z'
2 'x, y, z'
loop_
_atom_type_symbol
_atom_type_oxidation_number
Zn2+ 2
Si4+ 4
Na1+ 1
O2- -2
loop_
_atom_site_label
_atom_site_type_symbol
_atom_site_symmetry_multiplicity
_atom_site_Wyckoff_symbol
_atom_site_fract_x
_atom_site_fract_y
_atom_site_fract_z
_atom_site_B_iso_or_equiv
_atom_site_occupancy
_atom_site_attached_hydrogens
Zn1 Zn2+ 2 a 0 0 0.1889(1) . 1. 0
Si1 Si4+ 2 a 0.0045(3) 0.2460(2) 0.6882(2) . 1. 0
Na1 Na1+ 2 a 0.4847(8) 0.2470(6) 0.3214(4) . 1. 0
Na2 Na1+ 2 a 0.4884(9) 0.9929(7) 0.8144(3) . 1. 0
O1 O2- 2 a 0.9294(6) 0.2158(4) 0.3979(5) . 1. 0
O2 O2- 2 a 0.3131(5) 0.2719(4) 0.7141(6) . 1. 0
O3 O2- 2 a 0.9257(6) 0.0537(4) 0.8439(5) . 1. 0
O4 O2- 2 a 0.8656(6) 0.4372(4) 0.7883(5) . 1. 0
loop_
_atom_site_aniso_label
_atom_site_aniso_type_symbol
_atom_site_aniso_beta_11
_atom_site_aniso_beta_22
_atom_site_aniso_beta_33
_atom_site_aniso_beta_12
_atom_site_aniso_beta_13
_atom_site_aniso_beta_23
Zn1 Zn2+ 0.00463(9) 0.00220(4) 0.00395(8) -.00021(5) -.00036(37) 0.00030(13)
Si1 Si4+ 0.00241(31) 0.00181(17) 0.00368(31) -.00016(18) -.00001(27) -.00006(22)
Na1 Na1+ 0.02129(123) 0.00557(45) 0.01157(83) -.00018(55) -.00041(73)
-.00048(52)
Na2 Na1+ 0.00913(57) 0.00429(28) 0.00958(39) -.0047(31) 0.00059(59) -.00125(47)
O1 O2- 0.01512(95) 0.00511(42) 0.00462(61) -.00019(49) -.00041(62) 0.00045(41)
O2 O2- 0.00619(69) 0.00544(41) 0.01447(92) 0.00065(42) -.00008(66) -.00118(52)
O3 O2- 0.01209(86) 0.00527(41) 0.00725(67) -.00121(47) -.00034(59) 0.00092(42)
O4 O2- 0.00945(76) 0.00512(40) 0.00959(75) 0.00108(43) -.00034(62) -.00241(46)
#End of TTdata_34565-ICSD