
#(C) 2019 by FIZ Karlsruhe - Leibniz Institute for Information Infrastructure.  All rights reserved.
data_34669-ICSD
_database_code_ICSD 34669
_audit_creation_date 1980-01-01
_audit_update_record 2007-04-01
_chemical_name_systematic 'Disodium phyllo-disilicate - alpha'
_chemical_formula_structural 'Na2 (Si2 O5)'
_chemical_formula_sum 'Na2 O5 Si2'
_chemical_name_structure_type Li2Si2O5
_exptl_crystal_density_diffrn 2.5
_publ_section_title 'The crystal structure of alpha-Na2 Si2 O5'
loop_
_citation_id
_citation_journal_full
_citation_year
_citation_journal_volume
_citation_page_first
_citation_page_last
_citation_journal_id_ASTM
primary

;
Acta Crystallographica, Section B: Structural Crystallography and Crystal
Chemistry
; 1968 24 13 19 ACBCAR
loop_
_publ_author_name
'Pant, A.K.'
'Cruickshank, D.W.J.'
_cell_length_a 6.409(2)
_cell_length_b 15.422(4)
_cell_length_c 4.896(2)
_cell_angle_alpha 90.
_cell_angle_beta 90.
_cell_angle_gamma 90.
_cell_volume 483.92
_cell_formula_units_Z 4
_symmetry_space_group_name_H-M 'P c n b'
_symmetry_Int_Tables_number 60
_refine_ls_R_factor_all 0.039
loop_
_symmetry_equiv_pos_site_id
_symmetry_equiv_pos_as_xyz
1 'x, y+1/2, -z'
2 '-x+1/2, y, z+1/2'
3 'x+1/2, -y+1/2, z+1/2'
4 '-x, -y, -z'
5 '-x, -y+1/2, z'
6 'x+1/2, -y, -z+1/2'
7 '-x+1/2, y+1/2, -z+1/2'
8 'x, y, z'
loop_
_atom_type_symbol
_atom_type_oxidation_number
Na1+ 1
Si4+ 4
O2- -2
loop_
_atom_site_label
_atom_site_type_symbol
_atom_site_symmetry_multiplicity
_atom_site_Wyckoff_symbol
_atom_site_fract_x
_atom_site_fract_y
_atom_site_fract_z
_atom_site_B_iso_or_equiv
_atom_site_occupancy
_atom_site_attached_hydrogens
Na1 Na1+ 8 d 0.09888(15) 0.56036(5) 0.23704(16) . 1. 0
Si1 Si4+ 8 d 0.10516(9) 0.34298(3) 0.29624(9) . 1. 0
O1 O2- 4 c 0 0.25 0.23929(42) . 1. 0
O2 O2- 8 d 0.17933(25) 0.34786(9) 0.61707(26) . 1. 0
O3 O2- 8 d -.04692(26) 0.42141(9) 0.23945(28) . 1. 0
loop_
_atom_site_aniso_label
_atom_site_aniso_type_symbol
_atom_site_aniso_U_11
_atom_site_aniso_U_22
_atom_site_aniso_U_33
_atom_site_aniso_U_12
_atom_site_aniso_U_13
_atom_site_aniso_U_23
Na1 Na1+ 0.0153(4) 0.0182(4) 0.0130(3) 0.0008(4) 0.0003(3) -.0008(3)
Si1 Si4+ 0.0104(3) 0.0089(2) 0.0056(2) -.0010(2) -.0005(2) 0.0001(2)
O1 O2- 0.0281(13) 0.0156(9) 0.0172(9) -.011(1) 0 0
O2 O2- 0.0121(7) 0.0219(6) 0.0074(5) 0.0027(6) -.0005(5) -.0007(5)
O3 O2- 0.0165(8) 0.0161(6) 0.0129(6) 0.0034(6) -.0017(5) 0.0004(5)
#End of TTdata_34669-ICSD