
#(C) 2019 by FIZ Karlsruhe - Leibniz Institute for Information Infrastructure.  All rights reserved.
data_34689-ICSD
_database_code_ICSD 34689
_audit_creation_date 1980-01-01
_audit_update_record 1988-01-20
_chemical_name_systematic 'Tetrasodium tetramanganese(III) pentatitanium oxide'
_chemical_formula_structural 'Na4 Mn4 Ti5 O18'
_chemical_formula_sum 'Mn4 Na4 O18 Ti5'
_exptl_crystal_density_diffrn 3.91
_publ_section_title 'The structure of Na4 Mn4 Ti5 O18'
loop_
_citation_id
_citation_journal_full
_citation_year
_citation_journal_volume
_citation_page_first
_citation_page_last
_citation_journal_id_ASTM
primary

;
Acta Crystallographica, Section B: Structural Crystallography and Crystal
Chemistry
; 1968 24 1114 1120 ACBCAR
loop_
_publ_author_name
'Mumme, W.G.'
_cell_length_a 9.268(5)
_cell_length_b 26.601(5)
_cell_length_c 2.888(2)
_cell_angle_alpha 90.
_cell_angle_beta 90.
_cell_angle_gamma 90.
_cell_volume 712.
_cell_formula_units_Z 2
_symmetry_space_group_name_H-M 'P b a m'
_symmetry_Int_Tables_number 55
_refine_ls_R_factor_all 0.097
loop_
_symmetry_equiv_pos_site_id
_symmetry_equiv_pos_as_xyz
1 'x+1/2, -y+1/2, z'
2 '-x+1/2, y+1/2, z'
3 'x, y, -z'
4 '-x, -y, -z'
5 '-x+1/2, y+1/2, -z'
6 'x+1/2, -y+1/2, -z'
7 '-x, -y, z'
8 'x, y, z'
loop_
_atom_type_symbol
_atom_type_oxidation_number
Ti4+ 4
Mn3+ 3
Na1+ 1
O2- -2
loop_
_atom_site_label
_atom_site_type_symbol
_atom_site_symmetry_multiplicity
_atom_site_Wyckoff_symbol
_atom_site_fract_x
_atom_site_fract_y
_atom_site_fract_z
_atom_site_B_iso_or_equiv
_atom_site_occupancy
_atom_site_attached_hydrogens
Ti1 Ti4+ 2 c 0 0.5 0 0.7 1. 0
Ti2 Ti4+ 4 h 0.3572(6) 0.3061(2) 0.5 1. 1. 0
Ti3 Ti4+ 4 g 0.0142(6) 0.1081(2) 0 0.8 1. 0
Mn1 Mn3+ 4 g 0.0314(7) 0.3066(2) 0 2.1 1. 0
Mn2 Mn3+ 4 h 0.3618(5) 0.0903(2) 0.5 1.5 1. 0
Na1 Na1+ 4 g 0.2077(17) 0.2051(5) 0 2.7 1. 0
Na2 Na1+ 4 h 0.2064(26) 0.4155(8) 0.5 1.5 0.5 0
Na3 Na1+ 4 g 0.1269(38) 0.0051(12) 0 3.4 0.5 0
O1 O2- 4 h 0.3631(25) 0.0049(8) 0.5 1.8 1. 0
O2 O2- 4 g 0.2223(23) 0.0933(7) 0 1.3 1. 0
O3 O2- 4 h 0.0496(23) 0.1610(7) 0.5 1.4 1. 0
O4 O2- 4 h 0.4181(25) 0.1641(8) 0.5 1.7 1. 0
O5 O2- 4 h 0.1621(23) 0.2833(8) 0.5 1.4 1. 0
O6 O2- 4 g 0.4100(22) 0.2632(7) 0 1. 1. 0
O7 O2- 4 g 0.3150(22) 0.3562(7) 0 1. 1. 0
O8 O2- 4 g 0.4999(22) 0.0754(7) 0 1.1 1. 0
O9 O2- 4 h 0.4688(21) 0.4354(6) 0.5 0.7 1. 0
#End of TTdata_34689-ICSD