
#(C) 2019 by FIZ Karlsruhe - Leibniz Institute for Information Infrastructure.  All rights reserved.
data_34693-ICSD
_database_code_ICSD 34693
_audit_creation_date 1980-01-01
_audit_update_record 2012-08-01
_chemical_name_systematic 'Sodium catena-phosphate(V)'
_chemical_formula_structural 'Na (P O3)'
_chemical_formula_sum 'Na1 O3 P1'
_chemical_name_structure_type AgPO3
_exptl_crystal_density_diffrn 2.58
_publ_section_title
'Refinement of the structure of sodium Kurrol salt (Na P O3)x, type A'
loop_
_citation_id
_citation_journal_full
_citation_year
_citation_journal_volume
_citation_page_first
_citation_page_last
_citation_journal_id_ASTM
primary

;
Acta Crystallographica, Section B: Structural Crystallography and Crystal
Chemistry
; 1968 24 1621 1622 ACBCAR
loop_
_publ_author_name
'McAdam, A.'
'Jost, K.H.'
'Beagley, B.'
_cell_length_a 12.12(4)
_cell_length_b 6.20(2)
_cell_length_c 6.99(3)
_cell_angle_alpha 90.
_cell_angle_beta 92.0(5)
_cell_angle_gamma 90.
_cell_volume 524.94
_cell_formula_units_Z 8
_symmetry_space_group_name_H-M 'P 1 21/n 1'
_symmetry_Int_Tables_number 14
_refine_ls_R_factor_all 0.076
loop_
_symmetry_equiv_pos_site_id
_symmetry_equiv_pos_as_xyz
1 '-x+1/2, y+1/2, -z+1/2'
2 '-x, -y, -z'
3 'x+1/2, -y+1/2, z+1/2'
4 'x, y, z'
loop_
_atom_type_symbol
_atom_type_oxidation_number
Na1+ 1
P5+ 5
O2- -2
loop_
_atom_site_label
_atom_site_type_symbol
_atom_site_symmetry_multiplicity
_atom_site_Wyckoff_symbol
_atom_site_fract_x
_atom_site_fract_y
_atom_site_fract_z
_atom_site_B_iso_or_equiv
_atom_site_occupancy
_atom_site_attached_hydrogens
Na1 Na1+ 4 e 0.1310(3) 0.8688(6) 0.6287(5) . 1. 0
Na2 Na1+ 4 e 0.0056(3) 0.3790(7) 0.7636(5) . 1. 0
P1 P5+ 4 e 0.2154(1) 0.3624(4) 0.4914(2) . 1. 0
P2 P5+ 4 e 0.1102(1) 0.1266(4) 0.1823(2) . 1. 0
O1 O2- 4 e 0.2285(5) 0.2087(11) 0.6511(8) . 1. 0
O2 O2- 4 e 0.2169(4) 0.237(1) 0.2884(7) . 1. 0
O3 O2- 4 e 0.1199(4) 0.5124(11) 0.4952(8) . 1. 0
O4 O2- 4 e 0.1711(4) 0.9927(10) 0.0215(7) . 1. 0
O5 O2- 4 e 0.0416(5) 0.2942(11) 0.0865(8) . 1. 0
O6 O2- 4 e 0.0566(5) 0.9778(11) 0.3158(8) . 1. 0
loop_
_atom_site_aniso_label
_atom_site_aniso_type_symbol
_atom_site_aniso_U_11
_atom_site_aniso_U_22
_atom_site_aniso_U_33
_atom_site_aniso_U_12
_atom_site_aniso_U_13
_atom_site_aniso_U_23
Na1 Na1+ 0.025(2) 0.020(2) 0.023(2) -.001(2) -.003(2) -.001(2)
Na2 Na1+ 0.030(2) 0.019(2) 0.017(2) 0.000(2) 0.002(2) 0.002(2)
P1 P5+ 0.013(1) 0.010(1) 0.007(1) 0.001(1) 0.003(1) -.003(1)
P2 P5+ 0.012(1) 0.010(1) 0.008(1) -.002(1) 0.004(1) 0.000(1)
O1 O2- 0.034(3) 0.022(4) 0.016(3) 0.008(3) 0.002(3) -.012(3)
O2 O2- 0.018(3) 0.013(4) 0.013(2) -.004(3) 0.003(2) -.001(3)
O3 O2- 0.017(3) 0.025(4) 0.020(3) -.006(3) 0.006(2) 0.002(3)
O4 O2- 0.018(3) 0.014(4) 0.010(2) -.002(2) 0.002(2) 0.001(3)
O5 O2- 0.022(3) 0.023(4) 0.018(3) 0.001(3) -.004(2) 0.009(3)
O6 O2- 0.022(3) 0.022(4) 0.014(3) 0.002(3) 0.010(2) -.006(3)
#End of TTdata_34693-ICSD