
#(C) 2019 by FIZ Karlsruhe - Leibniz Institute for Information Infrastructure.  All rights reserved.
data_34791-ICSD
_database_code_ICSD 34791
_audit_creation_date 1980-01-01
_audit_update_record 2019-02-01
_chemical_name_systematic 'Calcium sodium aluminosilicate *'
_chemical_formula_structural '(Ca0.86 Na0.14) (Al1.84 Si2.16 O8)'
_chemical_formula_sum 'Al1.84 Ca0.86 Na0.14 O8 Si2.16'
_chemical_name_structure_type Feldspar#-(TC,I1-,i28)-Bytownite
_chemical_name_mineral 'Bytownite (heated to 1723 K, quenched'
_exptl_crystal_density_diffrn 2.73
_publ_section_title 'The structure of bytownite quenched from 1723 K'
loop_
_citation_id
_citation_journal_full
_citation_year
_citation_journal_volume
_citation_page_first
_citation_page_last
_citation_journal_id_ASTM
primary

;
Acta Crystallographica, Section B: Structural Crystallography and Crystal
Chemistry
; 1979 35 34 42 ACBCAR
loop_
_publ_author_name
'Facchinelli, A.'
'Bruno, E.'
'Chiari, G.'
_cell_length_a 8.183(1)
_cell_length_b 12.883(2)
_cell_length_c 14.186(2)
_cell_angle_alpha 93.38(2)
_cell_angle_beta 115.87(2)
_cell_angle_gamma 90.82(1)
_cell_volume 1341.96
_cell_formula_units_Z 8
_symmetry_space_group_name_H-M 'I -1'
_symmetry_Int_Tables_number 2
_refine_ls_R_factor_all 0.053
loop_
_symmetry_equiv_pos_site_id
_symmetry_equiv_pos_as_xyz
1 '-x, -y, -z'
2 'x, y, z'
3 '-x+1/2, -y+1/2, -z+1/2'
4 'x+1/2, y+1/2, z+1/2'
loop_
_atom_type_symbol
_atom_type_oxidation_number
Ca2+ 2
Na1+ 1
Ca2+ 2
Na1+ 1
Ca2+ 2
Na1+ 1
Ca2+ 2
Na1+ 1
Al3+ 3
Si4+ 4
Al3+ 3
Si4+ 4
Al3+ 3
Si4+ 4
Al3+ 3
Si4+ 4
Al3+ 3
Si4+ 4
Al3+ 3
Si4+ 4
Al3+ 3
Si4+ 4
Al3+ 3
Si4+ 4
O2- -2
loop_
_atom_site_label
_atom_site_type_symbol
_atom_site_symmetry_multiplicity
_atom_site_Wyckoff_symbol
_atom_site_fract_x
_atom_site_fract_y
_atom_site_fract_z
_atom_site_B_iso_or_equiv
_atom_site_occupancy
_atom_site_attached_hydrogens
Ca1 Ca2+ 4 i 0.2670(5) 0.9856(4) 0.0843(3) . 0.43 0
Na1 Na1+ 4 i 0.2670(5) 0.9856(4) 0.0843(3) . 0.07 0
Ca2 Ca2+ 4 i 0.7753(4) 0.5352(2) 0.5443(2) . 0.43 0
Na2 Na1+ 4 i 0.7753(4) 0.5352(2) 0.5443(2) . 0.07 0
Ca3 Ca2+ 4 i 0.2709(7) 0.0302(3) 0.5453(3) . 0.43 0
Na3 Na1+ 4 i 0.2709(7) 0.0302(3) 0.5453(3) . 0.07 0
Ca4 Ca2+ 4 i 0.7632(9) 0.5048(7) 0.0720(5) . 0.43 0
Na4 Na1+ 4 i 0.7632(9) 0.5048(7) 0.0720(5) . 0.07 0
Al1 Al3+ 4 i 0.0073(2) 0.1597(1) 0.1050(1) . 0.21 0
Si1 Si4+ 4 i 0.0073(2) 0.1597(1) 0.1050(1) . 0.79 0
Al2 Al3+ 4 i 0.0038(2) 0.1639(1) 0.6108(1) . 0.82 0
Si2 Si4+ 4 i 0.0038(2) 0.1639(1) 0.6108(1) . 0.18 0
Al3 Al3+ 4 i 0.0009(2) 0.8151(1) 0.1186(1) . 0.7 0
Si3 Si4+ 4 i 0.0009(2) 0.8151(1) 0.1186(1) . 0.3 0
Al4 Al3+ 4 i 0.0031(2) 0.8169(1) 0.6126(1) . 0.19 0
Si4 Si4+ 4 i 0.0031(2) 0.8169(1) 0.6126(1) . 0.81 0
Al5 Al3+ 4 i 0.6870(2) 0.1117(1) 0.1590(1) . 0.7 0
Si5 Si4+ 4 i 0.6870(2) 0.1117(1) 0.1590(1) . 0.3 0
Al6 Al3+ 4 i 0.6792(2) 0.1065(1) 0.6583(1) . 0.16 0
Si6 Si4+ 4 i 0.6792(2) 0.1065(1) 0.6583(1) . 0.84 0
Al7 Al3+ 4 i 0.6772(2) 0.8811(1) 0.1804(1) . 0.18 0
Si7 Si4+ 4 i 0.6772(2) 0.8811(1) 0.1804(1) . 0.82 0
Al8 Al3+ 4 i 0.6828(2) 0.8759(1) 0.6777(1) . 0.72 0
Si8 Si4+ 4 i 0.6828(2) 0.8759(1) 0.6777(1) . 0.28 0
O1 O2- 4 i 0.0068(7) 0.1265(4) 0.9907(3) . 1. 0
O2 O2- 4 i 0.0010(7) 0.1260(3) 0.4900(3) . 1. 0
O3 O2- 4 i 0.5765(6) 0.9901(3) 0.1395(3) . 1. 0
O4 O2- 4 i 0.5747(6) 0.9909(3) 0.6384(3) . 1. 0
O5 O2- 4 i 0.8191(6) 0.1010(3) 0.0922(4) . 1. 0
O6 O2- 4 i 0.8018(7) 0.1022(3) 0.5935(4) . 1. 0
O7 O2- 4 i 0.8096(7) 0.8548(4) 0.1252(4) . 1. 0
O8 O2- 4 i 0.8197(7) 0.8553(4) 0.6173(4) . 1. 0
O9 O2- 4 i 0.0125(7) 0.2820(3) 0.1374(3) . 1. 0
O10 O2- 4 i 0.0150(6) 0.2932(3) 0.6475(3) . 1. 0
O11 O2- 4 i 0.0095(6) 0.6814(3) 0.1078(3) . 1. 0
O12 O2- 4 i 0.0083(6) 0.6896(3) 0.6020(3) . 1. 0
O13 O2- 4 i 0.1939(6) 0.1065(4) 0.1877(3) . 1. 0
O14 O2- 4 i 0.2008(6) 0.1040(3) 0.6913(3) . 1. 0
O15 O2- 4 i 0.1942(6) 0.8676(4) 0.2175(4) . 1. 0
O16 O2- 4 i 0.1872(7) 0.8625(4) 0.7117(4) . 1. 0
loop_
_atom_site_aniso_label
_atom_site_aniso_type_symbol
_atom_site_aniso_beta_11
_atom_site_aniso_beta_22
_atom_site_aniso_beta_33
_atom_site_aniso_beta_12
_atom_site_aniso_beta_13
_atom_site_aniso_beta_23
Ca1 Ca2+ 0.0066(6) 0.0105(4) 0.0040(2) -.0028(4) 0.0019(3) -.0042(3)
Na1 Na1+ 0.0066(6) 0.0105(4) 0.0040(2) -.0028(4) 0.0019(3) -.0042(3)
Ca2 Ca2+ 0.0042(4) 0.0021(1) 0.0012(1) 0.0008(2) 0.0004(2) -.0001(1)
Na2 Na1+ 0.0042(4) 0.0021(1) 0.0012(1) 0.0008(2) 0.0004(2) -.0001(1)
Ca3 Ca2+ 0.0047(6) 0.0023(2) 0.0016(2) 0.0012(2) 0.0008(3) -.0003(1)
Na3 Na1+ 0.0047(6) 0.0023(2) 0.0016(2) 0.0012(2) 0.0008(3) -.0003(1)
Ca4 Ca2+ 0.0063(7) 0.0156(8) 0.0058(7) -.0016(7) 0.0022(6) -.0074(4)
Na4 Na1+ 0.0063(7) 0.0156(8) 0.0058(7) -.0016(7) 0.0022(6) -.0074(4)
Al1 Al3+ 0.0040(3) 0.0016(1) 0.0009(1) -.0006(1) 0.0007(1) 0.0001(1)
Si1 Si4+ 0.0040(3) 0.0016(1) 0.0009(1) -.0006(1) 0.0007(1) 0.0001(1)
Al2 Al3+ 0.0043(3) 0.0012(1) 0.0006(1) -.0005(1) 0.0008(1) 0.0001(1)
Si2 Si4+ 0.0043(3) 0.0012(1) 0.0006(1) -.0005(1) 0.0008(1) 0.0001(1)
Al3 Al3+ 0.0036(3) 0.0014(1) 0.0004(1) 0.0004(1) 0.0005(1) 0.0001(1)
Si3 Si4+ 0.0036(3) 0.0014(1) 0.0004(1) 0.0004(1) 0.0005(1) 0.0001(1)
Al4 Al3+ 0.0045(3) 0.0015(1) 0.0009(1) 0.0006(1) 0.0007(1) 0.0002(1)
Si4 Si4+ 0.0045(3) 0.0015(1) 0.0009(1) 0.0006(1) 0.0007(1) 0.0002(1)
Al5 Al3+ 0.0034(3) 0.0010(1) 0.0011(1) -.0001(1) 0.0004(1) 0.0001(1)
Si5 Si4+ 0.0034(3) 0.0010(1) 0.0011(1) -.0001(1) 0.0004(1) 0.0001(1)
Al6 Al3+ 0.0038(3) 0.0011(1) 0.0014(1) 0.0000(1) 0.0006(1) 0.0001(1)
Si6 Si4+ 0.0038(3) 0.0011(1) 0.0014(1) 0.0000(1) 0.0006(1) 0.0001(1)
Al7 Al3+ 0.0038(3) 0.0011(1) 0.0014(1) 0.0002(1) 0.0007(1) 0.0002(1)
Si7 Si4+ 0.0038(3) 0.0011(1) 0.0014(1) 0.0002(1) 0.0007(1) 0.0002(1)
Al8 Al3+ 0.0037(3) 0.0009(1) 0.0009(1) 0.0000(1) 0.0007(1) 0.0004(1)
Si8 Si4+ 0.0037(3) 0.0009(1) 0.0009(1) 0.0000(1) 0.0007(1) 0.0004(1)
O1 O2- 0.0118(10) 0.0030(3) 0.0013(2) 0.0004(1) 0.0029(4) 0.0000(2)
O2 O2- 0.0119(10) 0.0020(2) 0.0017(2) 0.0010(1) 0.0026(4) 0.0009(2)
O3 O2- 0.0042(7) 0.0012(2) 0.0016(2) 0.0000(3) 0.0002(3) 0.0005(2)
O4 O2- 0.0054(7) 0.0015(2) 0.0020(2) 0.0000(3) 0.0013(4) 0.0005(2)
O5 O2- 0.0065(8) 0.0025(2) 0.0032(3) -.0009(4) 0.0028(4) 0.0000(2)
O6 O2- 0.0077(8) 0.0019(2) 0.0036(3) -.0013(4) 0.0034(4) -.0007(2)
O7 O2- 0.0074(9) 0.0028(3) 0.0053(4) -.0003(4) 0.0037(4) -.0006(2)
O8 O2- 0.0086(9) 0.0031(3) 0.0049(4) 0.0007(4) 0.0047(5) 0.0000(2)
O9 O2- 0.0090(8) 0.0020(2) 0.0021(3) -.0008(4) 0.0026(4) 0.0000(2)
O10 O2- 0.0050(7) 0.0017(2) 0.0023(2) -.0014(3) 0.0007(4) -.0002(2)
O11 O2- 0.0060(8) 0.0027(3) 0.0020(3) 0.0008(4) 0.0009(4) -.0001(2)
O12 O2- 0.0064(8) 0.0018(2) 0.0013(2) 0.0007(3) 0.0000(4) 0.0000(2)
O13 O2- 0.0061(8) 0.0025(3) 0.0018(2) 0.0006(4) 0.0002(4) 0.0006(2)
O14 O2- 0.0065(8) 0.0021(3) 0.0019(3) 0.0002(4) -.0004(4) 0.0001(2)
O15 O2- 0.0052(8) 0.0022(3) 0.0032(3) 0.0004(4) -.0017(4) -.0005(2)
O16 O2- 0.0107(11) 0.0032(3) 0.0027(3) 0.0008(4) -.0003(4) -.0004(2)
#End of TTdata_34791-ICSD