
#(C) 2019 by FIZ Karlsruhe - Leibniz Institute for Information Infrastructure.  All rights reserved.
data_34792-ICSD
_database_code_ICSD 34792
_audit_creation_date 1980-01-01
_audit_update_record 1997-11-10
_chemical_name_systematic 'Calcium sodium alumosilicate *'
_chemical_formula_structural 'Ca0.86 Na0.14 Al1.94 Si2.06 O8'
_chemical_formula_sum 'Al1.94 Ca0.86 Na0.14 O8 Si2.06'
_chemical_name_structure_type Feldspar#-(TC,P1-,i52)-Anorthite
_chemical_name_mineral 'Bytownite (heated to 1723 K, quenched'
_exptl_crystal_density_diffrn 2.73
_publ_section_title 'The structure of bytownite quenched from 1723 K'
loop_
_citation_id
_citation_journal_full
_citation_year
_citation_journal_volume
_citation_page_first
_citation_page_last
_citation_journal_id_ASTM
primary

;
Acta Crystallographica, Section B: Structural Crystallography and Crystal
Chemistry
; 1979 35 34 42 ACBCAR
loop_
_publ_author_name
'Facchinelli, A.'
'Bruno, E.'
'Chiari, G.'
_cell_length_a 8.183(1)
_cell_length_b 12.883(2)
_cell_length_c 14.186(2)
_cell_angle_alpha 93.38(2)
_cell_angle_beta 115.87(2)
_cell_angle_gamma 90.82(1)
_cell_volume 1341.96
_cell_formula_units_Z 8
_symmetry_space_group_name_H-M 'P -1'
_symmetry_Int_Tables_number 2
_refine_ls_R_factor_all 0.055
loop_
_symmetry_equiv_pos_site_id
_symmetry_equiv_pos_as_xyz
1 '-x, -y, -z'
2 'x, y, z'
loop_
_atom_type_symbol
_atom_type_oxidation_number
Ca2+ 2
Na1+ 1
Ca2+ 2
Na1+ 1
Ca2+ 2
Na1+ 1
Ca2+ 2
Na1+ 1
Al3+ 3
Si4+ 4
Al3+ 3
Si4+ 4
Al3+ 3
Si4+ 4
Al3+ 3
Si4+ 4
Al3+ 3
Si4+ 4
Al3+ 3
Si4+ 4
Al3+ 3
Si4+ 4
Al3+ 3
Si4+ 4
Al3+ 3
Si4+ 4
Al3+ 3
Si4+ 4
Al3+ 3
Si4+ 4
Al3+ 3
Si4+ 4
Al3+ 3
Si4+ 4
Al3+ 3
Si4+ 4
Al3+ 3
Si4+ 4
O2- -2
loop_
_atom_site_label
_atom_site_type_symbol
_atom_site_symmetry_multiplicity
_atom_site_Wyckoff_symbol
_atom_site_fract_x
_atom_site_fract_y
_atom_site_fract_z
_atom_site_B_iso_or_equiv
_atom_site_occupancy
_atom_site_attached_hydrogens
Ca1 Ca2+ 2 i 0.2665(5) 0.9858(4) 0.0842(3) . 0.86 0
Na1 Na1+ 2 i 0.2665(5) 0.9858(4) 0.0842(3) . 0.14 0
Ca2 Ca2+ 2 i 0.7751(4) 0.5352(2) 0.5442(2) . 0.86 0
Na2 Na1+ 2 i 0.7751(4) 0.5352(2) 0.5442(2) . 0.14 0
Ca3 Ca2+ 2 i 0.2715(7) 0.0306(3) 0.5455(3) . 0.86 0
Na3 Na1+ 2 i 0.2715(7) 0.0306(3) 0.5455(3) . 0.14 0
Ca4 Ca2+ 2 i 0.7631(9) 0.5040(7) 0.0721(5) . 0.86 0
Na4 Na1+ 2 i 0.7631(9) 0.5040(7) 0.0721(5) . 0.14 0
Al1 Al3+ 2 i 0.0004(9) 0.1656(5) 0.1056(5) 1.13(15) 0.33 0
Si1 Si4+ 2 i 0.0004(9) 0.1656(5) 0.1056(5) 1.13(15) 0.67 0
Al2 Al3+ 2 i 0.5124(7) 0.6548(4) 0.6044(4) 0.25(11) 0.17 0
Si2 Si4+ 2 i 0.5124(7) 0.6548(4) 0.6044(4) 0.25(11) 0.83 0
Al3 Al3+ 2 i 0.0137(8) 0.1602(5) 0.6118(5) 0.48(13) 0.67 0
Si3 Si4+ 2 i 0.0137(8) 0.1602(5) 0.6118(5) 0.48(13) 0.33 0
Al4 Al3+ 2 i 0.4944(8) 0.6677(5) 0.1099(5) 0.42(12) 1. 0
Al5 Al3+ 2 i 0.9938(9) 0.8100(5) 0.1172(5) 0.47(15) 0.81 0
Si5 Si4+ 2 i 0.9938(9) 0.8100(5) 0.1172(5) 0.47(15) 0.19 0
Al6 Al3+ 2 i 0.5075(9) 0.3202(5) 0.6199(6) 0.52(15) 0.65 0
Si6 Si4+ 2 i 0.5075(9) 0.3202(5) 0.6199(6) 0.52(15) 0.35 0
Al7 Al3+ 2 i 0.0096(10) 0.8206(5) 0.6130(6) 0.51(15) 0.1 0
Si7 Si4+ 2 i 0.0096(10) 0.8206(5) 0.6130(6) 0.51(15) 0.9 0
Al8 Al3+ 2 i 0.4966(10) 0.3128(6) 0.1122(6) 0.93(17) 0.33 0
Si8 Si4+ 2 i 0.4966(10) 0.3128(6) 0.1122(6) 0.93(17) 0.67 0
Al9 Al3+ 2 i 0.6926(10) 0.1102(6) 0.1567(6) 0.53(16) 0.74 0
Si9 Si4+ 2 i 0.6926(10) 0.1102(6) 0.1567(6) 0.53(16) 0.26 0
Al10 Al3+ 2 i 0.1815(11) 0.6127(6) 0.6615(6) 0.67(17) 0.75 0
Si10 Si4+ 2 i 0.1815(11) 0.6127(6) 0.6615(6) 0.67(17) 0.25 0
Al11 Al3+ 2 i 0.6753(10) 0.1073(5) 0.6612(6) 0.53(15) 0.38 0
Si11 Si4+ 2 i 0.6753(10) 0.1073(5) 0.6612(6) 0.53(15) 0.62 0
Al12 Al3+ 2 i 0.1834(10) 0.6059(6) 0.1547(6) 1.03(17) 0.02 0
Si12 Si4+ 2 i 0.1834(10) 0.6059(6) 0.1547(6) 1.03(17) 0.98 0
Al13 Al3+ 2 i 0.6735(11) 0.8829(6) 0.1831(6) 0.76(18) 0.26 0
Si13 Si4+ 2 i 0.6735(11) 0.8829(6) 0.1831(6) 0.76(18) 0.74 0
Al14 Al3+ 2 i 0.1807(11) 0.3792(6) 0.6777(6) 0.76(18) 0.11 0
Si14 Si4+ 2 i 0.1807(11) 0.3792(6) 0.6777(6) 0.76(18) 0.89 0
Al15 Al3+ 2 i 0.6883(10) 0.8734(6) 0.6757(6) 0.58(16) 0.64 0
Si15 Si4+ 2 i 0.6883(10) 0.8734(6) 0.6757(6) 0.58(16) 0.36 0
Al16 Al3+ 2 i 0.1776(10) 0.3785(6) 0.1798(6) 0.47(16) 0.8 0
Si16 Si4+ 2 i 0.1776(10) 0.3785(6) 0.1798(6) 0.47(16) 0.2 0
O1 O2- 2 i 0.0251(19) 0.1303(10) 0.9953(11) 1.29(26) 1. 0
O2 O2- 2 i 0.4905(18) 0.6234(9) 0.4868(10) 0.87(22) 1. 0
O3 O2- 2 i 0.9854(19) 0.1263(10) 0.4872(10) 1.02(24) 1. 0
O4 O2- 2 i 0.5192(19) 0.6264(10) 0.9936(11) 1.34(26) 1. 0
O5 O2- 2 i 0.5682(19) 0.9926(11) 0.1430(11) 0.85(28) 1. 0
O6 O2- 2 i 0.0835(18) 0.4875(10) 0.6359(10) 0.69(26) 1. 0
O7 O2- 2 i 0.5753(20) 0.9870(11) 0.6326(11) 1.00(29) 1. 0
O8 O2- 2 i 0.0747(20) 0.4947(11) 0.1442(11) 0.88(28) 1. 0
O9 O2- 2 i 0.8109(22) 0.1025(12) 0.0849(12) 1.29(31) 1. 0
O10 O2- 2 i 0.3268(22) 0.5996(13) 0.5990(12) 1.51(32) 1. 0
O11 O2- 2 i 0.8162(17) 0.0971(9) 0.6027(9) 1.09(22) 1. 0
O12 O2- 2 i 0.2896(16) 0.6071(9) 0.0852(9) 1.01(22) 1. 0
O13 O2- 2 i 0.8179(18) 0.8509(10) 0.1368(10) 1.93(23) 1. 0
O14 O2- 2 i 0.3026(16) 0.3579(9) 0.6147(9) 1.33(21) 1. 0
O15 O2- 2 i 0.8100(16) 0.8552(9) 0.6070(9) 1.22(21) 1. 0
O16 O2- 2 i 0.3308(18) 0.3556(10) 0.1293(10) 1.80(24) 1. 0
O17 O2- 2 i 0.9992(18) 0.2876(10) 0.1334(10) 1.26(26) 1. 0
O18 O2- 2 i 0.5243(17) 0.7777(10) 0.6411(10) 0.83(24) 1. 0
O19 O2- 2 i 0.0238(21) 0.2892(11) 0.6439(12) 1.50(31) 1. 0
O20 O2- 2 i 0.5083(18) 0.7964(10) 0.1507(11) 0.82(24) 1. 0
O21 O2- 2 i 0.0042(20) 0.6772(11) 0.1113(11) 1.29(28) 1. 0
O22 O2- 2 i 0.5160(21) 0.1859(11) 0.6042(12) 1.34(29) 1. 0
O23 O2- 2 i 0.0205(18) 0.6947(10) 0.5997(10) 1.22(26) 1. 0
O24 O2- 2 i 0.4975(15) 0.1854(8) 0.1041(8) 0.49(19) 1. 0
O25 O2- 2 i 0.1846(18) 0.1092(10) 0.1925(10) 1.19(25) 1. 0
O26 O2- 2 i 0.7023(17) 0.6047(10) 0.6831(10) 0.96(23) 1. 0
O27 O2- 2 i 0.2095(17) 0.1055(10) 0.6871(10) 1.03(22) 1. 0
O28 O2- 2 i 0.6909(18) 0.6016(10) 0.1959(10) 1.36(25) 1. 0
O29 O2- 2 i 0.2031(13) 0.8704(7) 0.2094(7) 0.71(15) 1. 0
O30 O2- 2 i 0.6827(14) 0.3643(8) 0.7267(8) 1.38(19) 1. 0
O31 O2- 2 i 0.1766(16) 0.8584(9) 0.7174(9) 1.37(20) 1. 0
O32 O2- 2 i 0.7000(17) 0.3664(9) 0.2056(10) 1.89(22) 1. 0
loop_
_atom_site_aniso_label
_atom_site_aniso_type_symbol
_atom_site_aniso_beta_11
_atom_site_aniso_beta_22
_atom_site_aniso_beta_33
_atom_site_aniso_beta_12
_atom_site_aniso_beta_13
_atom_site_aniso_beta_23
Ca1 Ca2+ 0.0066(6) 0.0109(4) 0.0039(2) -.0026(4) 0.0019(3) -.0041(3)
Na1 Na1+ 0.0066(6) 0.0109(4) 0.0039(2) -.0026(4) 0.0019(3) -.0041(3)
Ca2 Ca2+ 0.0047(4) 0.0023(1) 0.0012(1) 0.0009(2) 0.0004(2) -.0002(1)
Na2 Na1+ 0.0047(4) 0.0023(1) 0.0012(1) 0.0009(2) 0.0004(2) -.0002(1)
Ca3 Ca2+ 0.0042(6) 0.0020(1) 0.0015(2) 0.0011(2) 0.0008(2) -.0002(1)
Na3 Na1+ 0.0042(6) 0.0020(1) 0.0015(2) 0.0011(2) 0.0008(2) -.0002(1)
Ca4 Ca2+ 0.0066(7) 0.0148(8) 0.0060(5) -.0024(7) 0.0026(6) -.0073(5)
Na4 Na1+ 0.0066(7) 0.0148(8) 0.0060(5) -.0024(7) 0.0026(6) -.0073(5)
#End of TTdata_34792-ICSD