
#(C) 2019 by FIZ Karlsruhe - Leibniz Institute for Information Infrastructure.  All rights reserved.
data_34872-ICSD
_database_code_ICSD 34872
_audit_creation_date 1980-01-01
_audit_update_record 1999-06-02
_chemical_name_systematic 'Sodium tecto-alumotrisilicate'
_chemical_formula_structural 'Na Al Si3 O8'
_chemical_formula_sum 'Al1 Na1 O8 Si3'
_chemical_name_structure_type Feldspar#-(TC)-Albite-NaAlSi3O8
_chemical_name_mineral 'Albite low'
_exptl_crystal_density_diffrn 2.54
_cell_measurement_temperature 1243.
_publ_section_title

;
A high-temperature study of the thermal expansion and the anisotropy of the
sodium atom in low albite
;
loop_
_citation_id
_citation_journal_full
_citation_year
_citation_journal_volume
_citation_page_first
_citation_page_last
_citation_journal_id_ASTM
primary 'American Mineralogist' 1977 62 921 931 AMMIAY
loop_
_publ_author_name
'Winter, J.K.'
'Ghose, S.'
'Okamura, F.P.'
_cell_length_a 8.277(1)
_cell_length_b 12.860(2)
_cell_length_c 7.181(1)
_cell_angle_alpha 93.33(1)
_cell_angle_beta 116.15(1)
_cell_angle_gamma 87.56(1)
_cell_volume 684.84
_cell_formula_units_Z 4
_symmetry_space_group_name_H-M 'C -1'
_symmetry_Int_Tables_number 2
_refine_ls_R_factor_all 0.039
loop_
_symmetry_equiv_pos_site_id
_symmetry_equiv_pos_as_xyz
1 '-x, -y, -z'
2 'x, y, z'
3 '-x+1/2, -y+1/2, -z'
4 'x+1/2, y+1/2, z'
loop_
_atom_type_symbol
_atom_type_oxidation_number
Na1+ 1
Al3+ 3
Si4+ 4
O2- -2
loop_
_atom_site_label
_atom_site_type_symbol
_atom_site_symmetry_multiplicity
_atom_site_Wyckoff_symbol
_atom_site_fract_x
_atom_site_fract_y
_atom_site_fract_z
_atom_site_B_iso_or_equiv
_atom_site_occupancy
_atom_site_attached_hydrogens
Na1 Na1+ 4 i 0.2782(3) 0.9883(2) 0.1468(4) . 1. 0
Al1 Al3+ 4 i 0.0098(1) 0.1747(1) 0.2113(1) . 1. 0
Si1 Si4+ 4 i 0.0058(1) 0.8200(1) 0.2370(1) . 1. 0
Si2 Si4+ 4 i 0.6997(1) 0.1135(1) 0.3252(1) . 1. 0
Si3 Si4+ 4 i 0.6911(1) 0.8830(1) 0.3596(1) . 1. 0
O1 O2- 4 i 0.0045(3) 0.1371(2) 0.9717(3) . 1. 0
O2 O2- 4 i 0.6078(2) 0.0001(3) 0.2841(3) . 1. 0
O3 O2- 4 i 0.8155(3) 0.1223(2) 0.2012(4) . 1. 0
O4 O2- 4 i 0.8252(3) 0.8531(3) 0.2549(4) . 1. 0
O5 O2- 4 i 0.0225(3) 0.3080(1) 0.2679(3) . 1. 0
O6 O2- 4 i 0.0298(3) 0.6947(1) 0.2466(3) . 1. 0
O7 O2- 4 i 0.2014(3) 0.1136(2) 0.3934(3) . 1. 0
O8 O2- 4 i 0.1795(3) 0.8706(2) 0.4280(3) . 1. 0
loop_
_atom_site_aniso_label
_atom_site_aniso_type_symbol
_atom_site_aniso_beta_11
_atom_site_aniso_beta_22
_atom_site_aniso_beta_33
_atom_site_aniso_beta_12
_atom_site_aniso_beta_13
_atom_site_aniso_beta_23
Na1 Na1+ 0.0236(5) 0.0203(3) 0.0612(9) -.0020(3) 0.0137(5) -.0124(4)
Al1 Al3+ 0.0111(1) 0.0032(1) 0.0113(2) -.0010(1) 0.0050(1) 0.0002(1)
Si1 Si4+ 0.0101(1) 0.0030(1) 0.0102(1) 0.0008(1) 0.0047(1) 0.0005(1)
Si2 Si4+ 0.0092(1) 0.0025(1) 0.0136(1) -.0005(1) 0.0040(1) 0.0002(1)
Si3 Si4+ 0.0091(1) 0.0025(1) 0.0139(1) 0.0002(1) 0.0044(1) 0.0006(1)
O1 O2- 0.0142(1) 0.0061(1) 0.0133(4) -.0002(2) 0.0106(4) 0.0011(2)
O2 O2- 0.0117(3) 0.0025(1) 0.0230(5) -.0002(1) 0.0043(3) 0.0012(2)
O3 O2- 0.0164(4) 0.0073(2) 0.0282(6) -.0034(2) 0.0137(4) -.0005(3)
O4 O2- 0.0178(5) 0.0081(2) 0.0359(8) 0.0031(2) 0.0175(5) 0.0009(3)
O5 O2- 0.0151(4) 0.0036(1) 0.0285(6) -.0019(2) 0.0074(4) -.0007(2)
O6 O2- 0.0152(4) 0.0033(1) 0.0290(6) 0.0021(2) 0.0074(4) 0.0018(2)
O7 O2- 0.0175(4) 0.0061(1) 0.0152(5) 0.0015(2) 0.0023(4) 0.0016(2)
O8 O2- 0.0190(5) 0.0068(2) 0.0153(5) -.0023(2) 0.0006(4) -.0007(2)
#End of TTdata_34872-ICSD