
#(C) 2019 by FIZ Karlsruhe - Leibniz Institute for Information Infrastructure.  All rights reserved.
data_34917-ICSD
_database_code_ICSD 34917
_audit_creation_date 1980-01-01
_audit_update_record 2015-02-01
_chemical_name_systematic 'Sodium calcium tecto-alumosilicate *'
_chemical_formula_structural '(Na0.84 Ca0.16) Al1.16 Si2.84 O8'
_chemical_formula_sum 'Al1.16 Ca0.16 Na0.84 O8 Si2.84'
_chemical_name_structure_type Feldspar#-(TC)-Albite-NaAlSi3O8
_chemical_name_mineral Oligoclase
_exptl_crystal_density_diffrn 2.64
_publ_section_title

;
The crystal structures of two oligoclases: A comparison with low and high
albite
;
loop_
_citation_id
_citation_journal_full
_citation_year
_citation_journal_volume
_citation_page_first
_citation_page_last
_citation_journal_id_ASTM
primary 'Zeitschrift fuer Kristallographie' 1971 133 43 65 ZEKRDZ
loop_
_publ_author_name
'Phillips, M.W.'
'Colville, A.A.'
'Ribbe, P.H.'
_cell_length_a 8.1553(3)
_cell_length_b 12.8206(5)
_cell_length_c 7.1397(4)
_cell_angle_alpha 93.965(67)
_cell_angle_beta 116.475(33)
_cell_angle_gamma 88.631(50)
_cell_volume 666.59
_cell_formula_units_Z 4
_symmetry_space_group_name_H-M 'C -1'
_symmetry_Int_Tables_number 2
_refine_ls_R_factor_all 0.035
loop_
_symmetry_equiv_pos_site_id
_symmetry_equiv_pos_as_xyz
1 '-x, -y, -z'
2 'x, y, z'
3 '-x+1/2, -y+1/2, -z'
4 'x+1/2, y+1/2, z'
loop_
_atom_type_symbol
_atom_type_oxidation_number
Na1+ 1
Ca2+ 2
Al3+ 3
Si4+ 4
Al3+ 3
Si4+ 4
Al3+ 3
Si4+ 4
Al3+ 3
Si4+ 4
O2- -2
loop_
_atom_site_label
_atom_site_type_symbol
_atom_site_symmetry_multiplicity
_atom_site_Wyckoff_symbol
_atom_site_fract_x
_atom_site_fract_y
_atom_site_fract_z
_atom_site_B_iso_or_equiv
_atom_site_occupancy
_atom_site_attached_hydrogens
Na1 Na1+ 4 i 0.2685(3) 0.9949(2) 0.1423(4) . 0.84 0
Ca1 Ca2+ 4 i 0.2685(3) 0.9949(2) 0.1423(4) . 0.16 0
Al1 Al3+ 4 i 0.0079(2) 0.1673(1) 0.2104(2) . 0.74 0
Si1 Si4+ 4 i 0.0079(2) 0.1673(1) 0.2104(2) . 0.26 0
Al2 Al3+ 4 i 0.0035(2) 0.8189(1) 0.2347(2) . 0.11 0
Si2 Si4+ 4 i 0.0035(2) 0.8189(1) 0.2347(2) . 0.89 0
Al3 Al3+ 4 i 0.6902(2) 0.1099(1) 0.3160(2) . 0.16 0
Si3 Si4+ 4 i 0.6902(2) 0.1099(1) 0.3160(2) . 0.84 0
Al4 Al3+ 4 i 0.6823(2) 0.8806(1) 0.3589(2) . 0.16 0
Si4 Si4+ 4 i 0.6823(2) 0.8806(1) 0.3589(2) . 0.84 0
O1 O2- 4 i 0.0052(5) 0.1312(2) 0.9716(5) . 1. 0
O2 O2- 4 i 0.5891(4) 0.9954(2) 0.2797(5) . 1. 0
O3 O2- 4 i 0.8125(5) 0.1090(2) 0.1900(5) . 1. 0
O4 O2- 4 i 0.8190(5) 0.8513(3) 0.2532(5) . 1. 0
O5 O2- 4 i 0.0143(4) 0.2983(2) 0.2740(5) . 1. 0
O6 O2- 4 i 0.0209(5) 0.6916(2) 0.2246(5) . 1. 0
O7 O2- 4 i 0.2032(5) 0.1092(2) 0.3871(5) . 1. 0
O8 O2- 4 i 0.1854(5) 0.8673(2) 0.4334(5) . 1. 0
loop_
_atom_site_aniso_label
_atom_site_aniso_type_symbol
_atom_site_aniso_beta_11
_atom_site_aniso_beta_22
_atom_site_aniso_beta_33
_atom_site_aniso_beta_12
_atom_site_aniso_beta_13
_atom_site_aniso_beta_23
Na1 Na1+ 0.0082(3) 0.0138(3) 0.0296(8) 0.0004(3) 0.0033(5) -.0147(4)
Ca1 Ca2+ 0.0082(3) 0.0138(3) 0.0296(8) 0.0004(3) 0.0033(5) -.0147(4)
Al1 Al3+ 0.0060(3) 0.0018(1) 0.0067(3) -.0006(1) 0.0028(2) 0.0003(1)
Si1 Si4+ 0.0060(3) 0.0018(1) 0.0067(3) -.0006(1) 0.0028(2) 0.0003(1)
Al2 Al3+ 0.0045(3) 0.0013(1) 0.0050(3) 0.0003(1) 0.0020(2) 0.0003(1)
Si2 Si4+ 0.0045(3) 0.0013(1) 0.0050(3) 0.0003(1) 0.0020(2) 0.0003(1)
Al3 Al3+ 0.0044(2) 0.0012(1) 0.0059(3) -.0002(1) 0.0020(2) 0.0001(1)
Si3 Si4+ 0.0044(2) 0.0012(1) 0.0059(3) -.0002(1) 0.0020(2) 0.0001(1)
Al4 Al3+ 0.0038(2) 0.0012(1) 0.0060(3) 0.0001(1) 0.0019(2) 0.0002(1)
Si4 Si4+ 0.0038(2) 0.0012(1) 0.0060(3) 0.0001(1) 0.0019(2) 0.0002(1)
O2 O2- 0.0054(6) 0.0016(2) 0.0087(7) -.0003(2) 0.0023(5) 0.0007(3)
O3 O2- 0.0073(7) 0.0025(2) 0.0105(9) -.0006(3) 0.0041(6) -.0002(3)
O4 O2- 0.0105(8) 0.0029(2) 0.0161(9) 0.0007(3) 0.0084(7) 0.0002(3)
O5 O2- 0.0065(6) 0.0025(2) 0.0101(7) -.0009(3) 0.0032(6) -.0008(3)
O6 O2- 0.0083(7) 0.0024(2) 0.0102(8) 0.0005(3) 0.0037(6) 0.0001(3)
O7 O2- 0.0079(7) 0.0023(2) 0.0083(7) 0.0002(3) 0.0028(6) 0.0006(3)
O8 O2- 0.0082(7) 0.0022(2) 0.0100(8) 0.0000(3) 0.0024(6) -.0002(3)
#End of TTdata_34917-ICSD