
#(C) 2019 by FIZ Karlsruhe - Leibniz Institute for Information Infrastructure.  All rights reserved.
data_35179-ICSD
_database_code_ICSD 35179
_audit_creation_date 1982-12-31
_audit_update_record 2012-08-01
_chemical_name_systematic
'Sodium dioxo-mue3-hydrogenhexaoxoiodato(VII)-duo-divanadate'
_chemical_formula_structural 'H Na3 V O2 I O6 (H2 O)5'
_chemical_formula_sum 'H11 I1 Na3 O13 V1'
_exptl_crystal_density_diffrn 2.69
_publ_section_title

;
Darstellung und Struktur des Polyvanadato-periodates Na6 (H2 V2 I2 O16) *
10(H2 O)
;
loop_
_citation_id
_citation_journal_full
_citation_year
_citation_journal_volume
_citation_page_first
_citation_page_last
_citation_journal_id_ASTM
primary

;
Zeitschrift fuer Naturforschung, Teil B: Anorganische Chemie, Organische
Chemie
; 1982 37 1241 1244 ZNBAD2
loop_
_publ_author_name
'Mattes, R.'
'Richter, K.L.'
_cell_length_a 11.407(5)
_cell_length_b 8.865(3)
_cell_length_c 6.105(3)
_cell_angle_alpha 82.07(3)
_cell_angle_beta 84.24(4)
_cell_angle_gamma 70.23(3)
_cell_volume 574.46
_cell_formula_units_Z 2
_symmetry_space_group_name_H-M 'P -1'
_symmetry_Int_Tables_number 2
_refine_ls_R_factor_all 0.022
loop_
_symmetry_equiv_pos_site_id
_symmetry_equiv_pos_as_xyz
1 '-x, -y, -z'
2 'x, y, z'
loop_
_atom_type_symbol
_atom_type_oxidation_number
I7+ 7
V5+ 5
O2- -2
Na1+ 1
H1+ 1
loop_
_atom_site_label
_atom_site_type_symbol
_atom_site_symmetry_multiplicity
_atom_site_Wyckoff_symbol
_atom_site_fract_x
_atom_site_fract_y
_atom_site_fract_z
_atom_site_B_iso_or_equiv
_atom_site_occupancy
_atom_site_attached_hydrogens
I1 I7+ 2 i 0.72093(2) 0.86719(2) 0.84984(3) . 1. 0
V1 V5+ 2 i 0.46674(5) 0.81902(7) 0.94900(7) . 1. 0
O1 O2- 2 i 0.6452(2) 0.7284(3) 0.0267(4) . 1. 0
O2 O2- 2 i 0.7719(2) 0.0360(3) 0.6688(4) . 1. 0
O3 O2- 2 i 0.8742(2) 0.7696(3) 0.9633(4) . 1. 0
O4 O2- 2 i 0.5527(2) 0.9797(3) 0.7813(4) . 1. 0
O5 O2- 2 i 0.6824(2) 0.0019(3) 0.0863(4) . 1. 0
O6 O2- 2 i 0.7562(2) 0.7574(3) 0.6083(4) . 1. 0
O7 O2- 2 i 0.4592(2) 0.7242(3) 0.7450(4) . 1. 0
O8 O2- 2 i 0.4242(2) 0.7170(3) 0.1778(4) . 1. 0
O9 O2- 2 i 0.0514(2) 0.8038(3) 0.4061(5) . 1. 0
O10 O2- 2 i 0.0868(3) 0.8539(3) 0.8317(5) . 1. 0
O11 O2- 2 i 0.9648(3) 0.4989(3) 0.2627(4) . 1. 0
O12 O2- 2 i 0.6590(3) 0.4776(3) 0.4611(5) . 1. 0
O13 O2- 2 i 0.2550(3) 0.5855(3) 0.0453(5) . 1. 0
Na1 Na1+ 2 i 0.8450(1) 0.9205(2) 0.3156(2) . 1. 0
Na2 Na1+ 2 i 0.1484(1) 0.5236(2) 0.3994(2) . 1. 0
Na3 Na1+ 2 i 0.5804(1) 0.7743(2) 0.4146(2) . 1. 0
H1 H1+ 2 i 0.280(6) 0.887(8) 0.323(10) 4. 1. 0
H2 H1+ 2 i 0.065(6) 0.813(8) 0.526(10) 4. 1. 0
H3 H1+ 2 i 0.027(6) 0.848(8) 0.878(10) 4. 1. 0
H4 H1+ 2 i 0.142(6) 0.763(8) 0.888(10) 4. 1. 0
H5 H1+ 2 i 0.001(6) 0.424(9) 0.215(9) 4. 1. 0
H6 H1+ 2 i 0.278(6) 0.506(9) 0.023(10) 4. 1. 0
H7 H1+ 2 i 0.315(6) 0.625(8) 0.043(10) 4. 1. 0
H8 H1+ 2 i 0.075(6) 0.854(8) 0.324(10) 4. 1. 0
H9 H1+ 2 i 0.933(6) 0.575(8) 0.163(9) 4. 1. 0
H10 H1+ 2 i 0.646(7) 0.444(9) 0.392(10) 4. 1. 0
H11 H1+ 2 i 0.374(6) 0.575(8) 0.415(10) 4. 1. 0
loop_
_atom_site_aniso_label
_atom_site_aniso_type_symbol
_atom_site_aniso_B_11
_atom_site_aniso_B_22
_atom_site_aniso_B_33
_atom_site_aniso_B_12
_atom_site_aniso_B_13
_atom_site_aniso_B_23
I1 I7+ 0.25(1) 0.50(1) 0.63(1) 0.01(1) -.07(1) -.05(1)
V1 V5+ 0.38(2) 0.61(2) 0.90(2) -.09(2) -.03(2) -.10(2)
O1 O2- 0.37(8) 0.70(9) 0.96(9) -.16(7) 0.02(7) 0.01(7)
O2 O2- 0.63(9) 0.77(9) 1.07(9) -.19(7) 0.10(7) 0.00(7)
O3 O2- 0.50(9) 0.88(9) 1.03(9) -.11(7) -.15(7) -.02(7)
O4 O2- 0.43(9) 0.76(9) 1.06(9) -.10(7) -.21(7) 0.05(7)
O5 O2- 0.45(9) 0.83(9) 0.92(9) 0.08(7) -.09(7) -.25(7)
O6 O2- 0.66(9) 0.85(9) 0.86(9) -.42(7) 0.03(7) -.40(7)
O7 O2- 1.2(1) 1.1(1) 0.90(9) -.52(8) 0.03(8) -.22(8)
O8 O2- 0.60(9) 0.74(9) 1.1(1) -.05(7) -.06(7) -.06(7)
O9 O2- 0.9(1) 1.1(1) 1.4(1) -.31(8) -.22(8) 0.02(8)
O10 O2- 0.9(1) 1.3(1) 1.8(1) -.43(9) -.13(9) 0.40(9)
O11 O2- 1.1(1) 1.1(1) 1.0(1) -.11(8) 0.02(8) 0.07(8)
O12 O2- 1.3(1) 1.4(1) 1.1(1) -.56(9) -.24(9) -.03(8)
O13 O2- 1.0(1) 0.9(1) 1.6(1) -.36(9) -.09(8) -.07(8)
Na1 Na1+ 0.66(5) 1.37(6) 1.03(5) -.32(4) -.20(4) -.06(4)
Na2 Na1+ 0.66(5) 0.87(5) 1.12(5) -.10(4) 0.05(4) -.11(4)
Na3 Na1+ 0.92(6) 1.32(6) 0.97(5) -.20(5) -.18(4) -.35(4)
#End of TTdata_35179-ICSD