
#(C) 2019 by FIZ Karlsruhe - Leibniz Institute for Information Infrastructure.  All rights reserved.
data_35196-ICSD
_database_code_ICSD 35196
_audit_creation_date 1982-12-31
_audit_update_record 2015-02-01
_chemical_name_systematic 'Trisodium hydrogenbis(sulfate(VI))'
_chemical_formula_structural 'Na3 (H (S O4)2)'
_chemical_formula_sum 'H1 Na3 O8 S2'
_chemical_name_structure_type Na3H(SO4)2
_exptl_crystal_density_diffrn 2.41
_publ_section_title

;
Neutron diffraction study of the hydrogen bond in trisodium
hydrogenbissulphate and a survey of very short O-H...O bonds
;
loop_
_citation_id
_citation_journal_full
_citation_year
_citation_journal_volume
_citation_page_first
_citation_page_last
_citation_journal_id_ASTM
primary

;
Acta Crystallographica, Section B: Structural Crystallography and Crystal
Chemistry
; 1982 38 2798 2801 ACBCAR
loop_
_publ_author_name
'Joswig, W.'
'Fuess, H.'
'Ferraris, G.'
_cell_length_a 8.648(1)
_cell_length_b 9.648(1)
_cell_length_c 9.143(1)
_cell_angle_alpha 90.
_cell_angle_beta 108.77(1)
_cell_angle_gamma 90.
_cell_volume 722.28
_cell_formula_units_Z 4
_symmetry_space_group_name_H-M 'P 1 21/c 1'
_symmetry_Int_Tables_number 14
_refine_ls_R_factor_all 0.049
loop_
_symmetry_equiv_pos_site_id
_symmetry_equiv_pos_as_xyz
1 'x, -y+1/2, z+1/2'
2 '-x, -y, -z'
3 '-x, y+1/2, -z+1/2'
4 'x, y, z'
loop_
_atom_type_symbol
_atom_type_oxidation_number
S6+ 6
Na1+ 1
O2- -2
H1+ 1
loop_
_atom_site_label
_atom_site_type_symbol
_atom_site_symmetry_multiplicity
_atom_site_Wyckoff_symbol
_atom_site_fract_x
_atom_site_fract_y
_atom_site_fract_z
_atom_site_B_iso_or_equiv
_atom_site_occupancy
_atom_site_attached_hydrogens
S1 S6+ 4 e 0.1391(2) 0.3087(2) 0.8574(2) . 1. 0
S2 S6+ 4 e 0.6340(2) 0.3187(2) 0.4054(2) . 1. 0
Na1 Na1+ 2 a 0 0 0 . 1. 0
Na2 Na1+ 2 d 0.5 0 0.5 . 1. 0
Na3 Na1+ 4 e 0.7450(2) -.0060(2) 0.2767(2) . 1. 0
Na4 Na1+ 4 e 0.3869(2) 0.1558(2) 0.1278(2) . 1. 0
O1 O2- 4 e 0.1546(1) 0.1581(1) 0.8750(1) . 1. 0
O2 O2- 4 e 0.2554(1) 0.3755(1) 0.9920(1) . 1. 0
O3 O2- 4 e -.0321(1) 0.3489(1) 0.8544(2) . 1. 0
O4 O2- 4 e 0.1594(1) 0.3563(1) 0.7144(1) . 1. 0
O5 O2- 4 e 0.6162(1) 0.3644(1) 0.5504(1) . 1. 0
O6 O2- 4 e 0.8092(1) 0.3375(1) 0.4149(2) . 1. 0
O7 O2- 4 e 0.5930(1) 0.1720(1) 0.3751(1) . 1. 0
O8 O2- 4 e 0.5333(1) 0.4039(1) 0.2779(1) . 1. 0
H1 H1+ 4 e -.1083(3) 0.2603(2) 0.8821(3) . 1. 0
loop_
_atom_site_aniso_label
_atom_site_aniso_type_symbol
_atom_site_aniso_U_11
_atom_site_aniso_U_22
_atom_site_aniso_U_33
_atom_site_aniso_U_12
_atom_site_aniso_U_13
_atom_site_aniso_U_23
S1 S6+ 0.0102(7) 0.0121(7) 0.0118(6) 0.0004(4) 0.0042(5) 0.0004(5)
S2 S6+ 0.0088(6) 0.0078(6) 0.0120(6) 0.0003(5) 0.0028(5) -.0020(5)
Na1 Na1+ 0.0151(9) 0.0169(9) 0.0310(11) 0.0030(7) 0.0044(8) 0.0033(8)
Na2 Na1+ 0.0369(13) 0.0235(10) 0.0513(16) 0.0129(9) 0.0323(13) 0.0207(11)
Na3 Na1+ 0.0196(7) 0.0160(6) 0.0205(6) -.0003(5) 0.0078(5) -.0012(5)
Na4 Na1+ 0.0159(7) 0.0308(8) 0.0196(7) 0.0028(5) 0.0043(6) 0.0041(6)
O1 O2- 0.0196(4) 0.0120(4) 0.0208(4) 0.0027(3) 0.0085(3) -.0003(3)
O2 O2- 0.0219(5) 0.0221(4) 0.0196(4) -.0073(3) 0.0043(4) -.0062(3)
O3 O2- 0.0133(4) 0.0163(4) 0.0435(6) 0.0042(3) 0.0147(4) 0.0076(4)
O4 O2- 0.0256(5) 0.0304(5) 0.0176(4) 0.0000(4) 0.0113(4) 0.0077(3)
O5 O2- 0.0259(5) 0.0317(5) 0.0190(4) 0.0003(4) 0.0090(4) -.0110(4)
O6 O2- 0.0120(4) 0.0179(4) 0.0515(7) -.0047(3) 0.0015(4) -.0111(4)
O7 O2- 0.0204(4) 0.0128(4) 0.0217(4) -.0048(3) 0.0089(3) -.0164(3)
O8 O2- 0.0247(5) 0.0230(5) 0.0241(4) 0.0103(4) 0.0068(4) 0.0078(4)
H1 H1+ 0.0304(9) 0.0328(9) 0.0473(12) 0.0115(7) 0.0134(9) 0.0052(8)
#End of TTdata_35196-ICSD