
#(C) 2019 by FIZ Karlsruhe - Leibniz Institute for Information Infrastructure.  All rights reserved.
data_35237-ICSD
_database_code_ICSD 35237
_audit_creation_date 1982-12-31
_chemical_name_systematic 'Sodium pentaborate hydrate'
_chemical_formula_structural 'Na3 B5 O9 H2 O'
_chemical_formula_sum 'H2 B5 Na3 O10'
_exptl_crystal_density_diffrn 2.5
_publ_section_title 'The Structure of Sodium Borate Na3 (B5 O9) * H2 O'
loop_
_citation_id
_citation_journal_full
_citation_year
_citation_journal_volume
_citation_page_first
_citation_page_last
_citation_journal_id_ASTM
primary

;
Acta Crystallographica, Section B: Structural Crystallography and Crystal
Chemistry
; 1982 38 2987 2991 ACBCAR
loop_
_publ_author_name
'Menchetti, S.'
'Sabelli, C.'
'Trosti-Ferroni, R.'
_cell_length_a 11.2373(2)
_cell_length_b 6.0441(1)
_cell_length_c 11.1336(2)
_cell_angle_alpha 90.
_cell_angle_beta 90.
_cell_angle_gamma 90.
_cell_volume 756.19
_cell_formula_units_Z 4
_symmetry_space_group_name_H-M 'P c a 21'
_symmetry_Int_Tables_number 29
_refine_ls_R_factor_all 0.03
loop_
_symmetry_equiv_pos_site_id
_symmetry_equiv_pos_as_xyz
1 'x+1/2, -y, z'
2 '-x+1/2, y, z+1/2'
3 '-x, -y, z+1/2'
4 'x, y, z'
loop_
_atom_type_symbol
_atom_type_oxidation_number
Na1+ 1
B3+ 3
O2- -2
H1+ 1
loop_
_atom_site_label
_atom_site_type_symbol
_atom_site_symmetry_multiplicity
_atom_site_Wyckoff_symbol
_atom_site_fract_x
_atom_site_fract_y
_atom_site_fract_z
_atom_site_B_iso_or_equiv
_atom_site_occupancy
_atom_site_attached_hydrogens
Na1 Na1+ 4 a 0.3614(1) 0.0794(2) 0.25 1.53 1. 0
Na2 Na1+ 4 a 0.5647(1) 0.5250(2) 0.2561(2) 1.79 1. 0
Na3 Na1+ 4 a 0.2430(1) 0.3486(2) 0.5061(3) 1.49 1. 0
B1 B3+ 4 a 0.7473(4) 0.1355(4) 0.5125(5) 0.58 1. 0
B2 B3+ 4 a 0.9584(3) 0.2774(5) 0.5088(4) 0.67 1. 0
B3 B3+ 4 a 0.6045(3) 0.0394(5) 0.3482(3) 0.64 1. 0
B4 B3+ 4 a 0.9118(3) -.0645(5) 0.6278(3) 0.61 1. 0
B5 B3+ 4 a 0.5399(3) 0.3264(5) 0.4975(4) 0.47 1. 0
O1 O2- 4 a 0.7096(2) -.0015(4) 0.4074(2) 0.66 1. 0
O2 O2- 4 a 0.7878(2) -.0034(4) 0.6093(2) 0.6 1. 0
O3 O2- 4 a 0.6517(2) 0.2761(4) 0.5563(3) 0.74 1. 0
O4 O2- 4 a 0.8447(2) 0.2842(4) 0.4654(3) 0.87 1. 0
O5 O2- 4 a 1.0414(2) 0.4295(3) 0.4707(2) 0.63 1. 0
O6 O2- 4 a 0.9928(2) 0.1193(3) 0.5895(2) 0.66 1. 0
O7 O2- 4 a 0.5671(1) -.0997(3) 0.2587(3) 0.63 1. 0
O8 O2- 4 a 0.5322(2) 0.2133(3) 0.3776(2) 0.6 1. 0
O9 O2- 4 a 0.4377(1) 0.2769(3) 0.5700(2) 0.57 1. 0
O10 O2- 4 a 0.3006(2) 0.4974(4) 0.2534(4) 1.96 1. 0
H1 H1+ 4 a 0.321(4) 0.578(7) 0.182(5) 3.3 1. 0
H2 H1+ 4 a 0.314(4) 0.585(7) 0.311(4) 3.1 1. 0
#End of TTdata_35237-ICSD