
#(C) 2019 by FIZ Karlsruhe - Leibniz Institute for Information Infrastructure.  All rights reserved.
data_35343-ICSD
_database_code_ICSD 35343
_audit_creation_date 1983-12-31
_audit_update_record 2007-04-01
_chemical_name_systematic 'Sodium trineptunium(IV) fluoride'
_chemical_formula_structural 'Na Np3 F13'
_chemical_formula_sum 'F13 Na1 Np3'
_exptl_crystal_density_diffrn 7.08
_publ_section_title 'Fluorure de neptunium et de sodium: Na Np3 F13'
loop_
_citation_id
_citation_journal_full
_citation_year
_citation_journal_volume
_citation_page_first
_citation_page_last
_citation_journal_id_ASTM
primary 'Acta Crystallographica, Section C: Crystal Structure Communications'
1983 39 318 320 ACSCEE
loop_
_publ_author_name
'Cousson, A.'
'Abazli, H.'
'Pages, M.'
'Gasperin, M.'
_cell_length_a 8.022(5)
_cell_length_b 8.022(5)
_cell_length_c 16.5130(90)
_cell_angle_alpha 90.
_cell_angle_beta 90.
_cell_angle_gamma 120.
_cell_volume 920.28
_cell_formula_units_Z 4
_symmetry_space_group_name_H-M 'P 63/m m c'
_symmetry_Int_Tables_number 194
_refine_ls_R_factor_all 0.066
loop_
_symmetry_equiv_pos_site_id
_symmetry_equiv_pos_as_xyz
1 'x, x-y, -z+1/2'
2 '-x+y, y, -z+1/2'
3 '-y, -x, -z+1/2'
4 '-x+y, -x, -z+1/2'
5 '-y, x-y, -z+1/2'
6 'x, y, -z+1/2'
7 '-x, -x+y, z+1/2'
8 'x-y, -y, z+1/2'
9 'y, x, z+1/2'
10 'x-y, x, z+1/2'
11 'y, -x+y, z+1/2'
12 '-x, -y, z+1/2'
13 '-x, -x+y, -z'
14 'x-y, -y, -z'
15 'y, x, -z'
16 'x-y, x, -z'
17 'y, -x+y, -z'
18 '-x, -y, -z'
19 'x, x-y, z'
20 '-x+y, y, z'
21 '-y, -x, z'
22 '-x+y, -x, z'
23 '-y, x-y, z'
24 'x, y, z'
loop_
_atom_type_symbol
_atom_type_oxidation_number
Np4+ 4
Na1+ 1
F1- -1
loop_
_atom_site_label
_atom_site_type_symbol
_atom_site_symmetry_multiplicity
_atom_site_Wyckoff_symbol
_atom_site_fract_x
_atom_site_fract_y
_atom_site_fract_z
_atom_site_B_iso_or_equiv
_atom_site_occupancy
_atom_site_attached_hydrogens
Np1 Np4+ 12 k 0.1619(1) -.1619(1) 0.1129(1) . 1. 0
Na1 Na1+ 4 f 0.3333 0.6667 0.9104(19) . 1. 0
F1 F1- 6 h 0.1350(27) -.1350(27) 0.25 . 1. 0
F2 F1- 12 k 0.5385(23) -.5385(23) 0.8358(10) . 1. 0
F3 F1- 12 i 0.3305(22) 0 0 . 1. 0
F4 F1- 4 f 0.3333 0.6667 0.0571(20) . 1. 0
F5 F1- 4 e 0 0 0.0862(24) . 1. 0
F6 F1- 12 k 0.1680(31) -.1680(31) 0.8521(9) . 1. 0
F7 F1- 2 d 0.3333 0.6667 0.75 . 1. 0
loop_
_atom_site_aniso_label
_atom_site_aniso_type_symbol
_atom_site_aniso_beta_11
_atom_site_aniso_beta_22
_atom_site_aniso_beta_33
_atom_site_aniso_beta_12
_atom_site_aniso_beta_13
_atom_site_aniso_beta_23
Np1 Np4+ 0.0044(1) 0.0044 0.0012 0.0022 0 0
Na1 Na1+ 0.0256(80) 0.0256 0.0035(13) 0.0128 0 0
F1 F1- 0.0021(25) 0.0021 0.0013 0.001 0 0
F2 F1- 0.0067(24) 0.0067 0.0018(6) 0.0033 0 0
F3 F1- 0.0048(40) 0.0032(35) 0.0010(8) 0.0016 0.0016(4) 0.0032
F4 F1- 0.004(4) 0.004 0.0030(13) 0.002 0 0
F5 F1- 0.0214(91) 0.0214 0.0038(18) 0.0107 0 0
F6 F1- 0.0232(55) 0.0232(55) 0.0005(4) 0.0116 0 0
F7 F1- 0.0015(46) 0.0015 0.0021(14) 0.0008 0 0
#End of TTdata_35343-ICSD