
#(C) 2019 by FIZ Karlsruhe - Leibniz Institute for Information Infrastructure.  All rights reserved.
data_35629-ICSD
_database_code_ICSD 35629
_audit_creation_date 1983-12-31
_audit_update_record 2012-08-01
_chemical_name_systematic 'Sodium calcium phosphate(V)'
_chemical_formula_structural 'Na Ca (P O4)'
_chemical_formula_sum 'Ca1 Na1 O4 P1'
_chemical_name_structure_type CaSrSiO4
_chemical_name_mineral Buchwaldite
_exptl_crystal_density_diffrn 3.11
_publ_section_title

;
Structure of the low-temperature variety of calcium sodium orthophosphate, Na
Ca P O4
;
loop_
_citation_id
_citation_journal_full
_citation_year
_citation_journal_volume
_citation_page_first
_citation_page_last
_citation_journal_id_ASTM
primary 'Acta Crystallographica, Section C: Crystal Structure Communications'
1983 39 1483 1485 ACSCEE
loop_
_publ_author_name
'Ben Amara, M.'
'Vlasse, M.'
'le Flem, G.'
'Hagenmuller, P.'
_cell_length_a 20.397(10)
_cell_length_b 5.412(4)
_cell_length_c 9.161(5)
_cell_angle_alpha 90.
_cell_angle_beta 90.
_cell_angle_gamma 90.
_cell_volume 1011.27
_cell_formula_units_Z 12
_symmetry_space_group_name_H-M 'P n 21 a'
_symmetry_Int_Tables_number 33
_refine_ls_R_factor_all 0.038
loop_
_symmetry_equiv_pos_site_id
_symmetry_equiv_pos_as_xyz
1 'x+1/2, y, -z+1/2'
2 '-x+1/2, y+1/2, z+1/2'
3 '-x, y+1/2, -z'
4 'x, y, z'
loop_
_atom_type_symbol
_atom_type_oxidation_number
Ca2+ 2
Na1+ 1
P5+ 5
O2- -2
loop_
_atom_site_label
_atom_site_type_symbol
_atom_site_symmetry_multiplicity
_atom_site_Wyckoff_symbol
_atom_site_fract_x
_atom_site_fract_y
_atom_site_fract_z
_atom_site_B_iso_or_equiv
_atom_site_occupancy
_atom_site_attached_hydrogens
Ca1 Ca2+ 4 a 0.0011(3) 0.26 0.7011(7) . 1. 0
Ca2 Ca2+ 4 a 0.1674(2) 0.2278(7) 0.7943(8) . 1. 0
Ca3 Ca2+ 4 a 0.3356(3) 0.2051(6) 0.7023(8) . 1. 0
Na1 Na1+ 4 a 0.0559(7) 0.2624(21) 0.0719(15) . 1. 0
Na2 Na1+ 4 a 0.2216(8) 0.2212(21) 0.4277(18) . 1. 0
Na3 Na1+ 4 a 0.3920(6) 0.2368(18) 0.0704(15) . 1. 0
P1 P5+ 4 a 0.4071(4) 0.2539(13) 0.4144(10) . 1. 0
P2 P5+ 4 a 0.2404(4) 0.2226(12) 0.0819(9) . 1. 0
P3 P5+ 4 a 0.0762(3) 0.2238(12) 0.4097(9) . 1. 0
O1 O2- 4 a 0.3338(6) 0.2761(27) 0.4417(19) . 1. 0
O2 O2- 4 a 0.4453(9) 0.2588(27) 0.558(2) . 1. 0
O3 O2- 4 a 0.4241(8) 0.0140(25) 0.3348(17) . 1. 0
O4 O2- 4 a 0.4289(9) 0.4769(21) 0.3190(19) . 1. 0
O5 O2- 4 a 0.1698(6) 0.2758(25) 0.0626(17) . 1. 0
O6 O2- 4 a 0.2750(11) 0.1705(26) 0.9330(22) . 1. 0
O7 O2- 4 a 0.2531(10) 0.0093(28) 0.1886(22) . 1. 0
O8 O2- 4 a 0.2717(9) 0.4650(26) 0.1547(20) . 1. 0
O9 O2- 4 a 0.0011(10) 0.1720(25) 0.4434(17) . 1. 0
O10 O2- 4 a 0.1071(9) 0.2686(27) 0.5625(20) . 1. 0
O11 O2- 4 a 0.1039(10) 0.9974(31) 0.3441(23) . 1. 0
O12 O2- 4 a 0.0836(10) 0.4553(26) 0.3156(22) . 1. 0
loop_
_atom_site_aniso_label
_atom_site_aniso_type_symbol
_atom_site_aniso_U_11
_atom_site_aniso_U_22
_atom_site_aniso_U_33
_atom_site_aniso_U_12
_atom_site_aniso_U_13
_atom_site_aniso_U_23
Ca1 Ca2+ 0.0054(18) 0.0069(10) 0.0050(14) -0.0001(12) -0.0050(14) -0.0003(14)
Ca2 Ca2+ 0.0043(17) 0.0085(13) 0.0083(18) -0.002(1) -0.0031(14) 0.0001(14)
Ca3 Ca2+ 0.0079(26) 0.0081(14) 0.0056(22) 0.0015(11) 0.0004(15) -0.0004(15)
Na1 Na1+ 0.0128(52) 0.0089(26) 0.0218(60) -0.0037(26) -0.0022(34) 0.0046(27)
Na2 Na1+ 0.0067(45) 0.0348(48) 0.0184(58) -0.0069(36) -0.0039(35) 0.0052(36)
Na3 Na1+ 0.0124(53) 0.0158(40) 0.0106(48) -0.0055(29) 0.0046(33) 0.0005(27)
P1 P5+ 0.0019(24) 0.0099(20) 0.0076(27) 0.0027(16) 0.0017(17) -0.0043(18)
P2 P5+ 0.0087(27) 0.0030(14) 0.0021(21) -0.0008(14) -0.0010(17) 0.0009(13)
P3 P5+ 0.0040(23) 0.0024(13) 0.0026(20) 0.0030(12) 0.0009(14) -0.0022(13)
O1 O2- 0.0052(49) 0.0247(56) 0.0209(77) -0.0001(44) 0.0011(33) -0.0015(60)
O2 O2- 0.0054(51) 0.0276(57) 0.003(5) -0.0013(53) -0.0017(35) 0.0022(54)
O3 O2- 0.0178(68) 0.0048(38) 0.0131(52) -0.0018(37) 0.0078(42) -0.0063(34)
O4 O2- 0.0081(53) 0.0037(30) 0.0163(69) -0.0025(28) 0.0076(45) 0.095(32)
O5 O2- 0.0005(51) 0.0203(49) 0.0096(55) -0.0022(41) -0.0063(30) 0.0093(46)
O6 O2- 0.0162(71) 0.0127(43) 0.0132(75) 0.0035(35) 0.0077(56) 0.0035(42)
O7 O2- 0.0232(87) 0.0103(47) 0.0126(71) 0.0004(47) -0.0015(59) 0.0074(47)
O8 O2- 0.0296(86) 0.0067(39) 0.0193(70) -0.0121(44) -0.0103(56) -0.0007(37)
O9 O2- 0.0304(82) 0.0126(46) 0.0092(57) -0.0115(53) -0.0065(57) -0.0052(35)
O10 O2- 0.0069(57) 0.0232(49) 0.0055(50) 0.0046(47) -0.0039(35) -0.0096(48)
O11 O2- 0.0188(85) 0.0163(53) 0.0178(88) -0.0107(49) -0.0035(60) 0.0019(52)
O12 O2- 0.0035(70) 0.0076(45) 0.0086(81) 0.0039(36) 0.0002(59) -0.0001(43)
#End of TTdata_35629-ICSD