
#(C) 2019 by FIZ Karlsruhe - Leibniz Institute for Information Infrastructure.  All rights reserved.
data_35635-ICSD
_database_code_ICSD 35635
_audit_creation_date 1983-12-31
_chemical_name_systematic 'Sodium divanadate'
_chemical_formula_structural 'Na4 (V2 O7)'
_chemical_formula_sum 'Na4 O7 V2'
_exptl_crystal_density_diffrn 2.83
_publ_section_title 'Tetrasodium Divanadate, Na4 (V2 O7)'
loop_
_citation_id
_citation_journal_full
_citation_year
_citation_journal_volume
_citation_page_first
_citation_page_last
_citation_journal_id_ASTM
primary 'Acta Crystallographica, Section C: Crystal Structure Communications'
1983 39 1480 1482 ACSCEE
loop_
_publ_author_name
'Kato, K.'
'Takayama, E.'
_cell_length_a 15.376(2)
_cell_length_b 5.7573(5)
_cell_length_c 32.564(2)
_cell_angle_alpha 90.
_cell_angle_beta 95.08(1)
_cell_angle_gamma 90.
_cell_volume 2871.38
_cell_formula_units_Z 16
_symmetry_space_group_name_H-M 'C 1 2/c 1'
_symmetry_Int_Tables_number 15
_refine_ls_R_factor_all 0.05
loop_
_symmetry_equiv_pos_site_id
_symmetry_equiv_pos_as_xyz
1 'x, -y, z+1/2'
2 '-x, -y, -z'
3 '-x, y, -z+1/2'
4 'x, y, z'
5 'x+1/2, -y+1/2, z+1/2'
6 '-x+1/2, -y+1/2, -z'
7 '-x+1/2, y+1/2, -z+1/2'
8 'x+1/2, y+1/2, z'
loop_
_atom_type_symbol
_atom_type_oxidation_number
Na1+ 1
V5+ 5
O2- -2
loop_
_atom_site_label
_atom_site_type_symbol
_atom_site_symmetry_multiplicity
_atom_site_Wyckoff_symbol
_atom_site_fract_x
_atom_site_fract_y
_atom_site_fract_z
_atom_site_B_iso_or_equiv
_atom_site_occupancy
_atom_site_attached_hydrogens
Na1 Na1+ 4 c 0.25 0.25 0 . 1. 0
Na2 Na1+ 4 e 0 0.1887(3) 0.25 . 1. 0
Na3 Na1+ 8 f 0.14053(8) 0.8183(2) 0.02207(4) . 1. 0
Na4 Na1+ 8 f 0.43097(8) 0.2694(2) 0.06042(4) . 1. 0
Na5 Na1+ 8 f 0.10437(7) 0.7773(2) 0.12776(4) . 1. 0
Na6 Na1+ 8 f 0.23785(8) 0.3249(2) 0.10446(4) . 1. 0
Na7 Na1+ 8 f 0.49271(8) 0.6947(3) 0.14948(4) . 1. 0
Na8 Na1+ 8 f 0.30778(7) 0.7248(2) 0.18892(4) . 1. 0
Na9 Na1+ 8 f 0.12030(7) 0.7099(2) 0.23082(4) . 1. 0
V1 V5+ 8 f 0.05025(3) 0.29511(8) 0.05369(1) . 1. 0
V2 V5+ 8 f 0.32892(3) 0.77231(8) 0.07032(1) . 1. 0
V3 V5+ 8 f 0.19589(3) 0.24633(7) 0.19533(1) . 1. 0
V4 V5+ 8 f 0.40702(3) 0.20095(8) 0.17688(1) . 1. 0
O1 O2- 8 f 0.0940(1) 0.2091(4) 0.01055(6) . 1. 0
O2 O2- 8 f 0.0709(1) 0.5771(3) 0.06449(7) . 1. 0
O3 O2- 8 f 0.0918(1) 0.1310(4) 0.09309(6) . 1. 0
O4 O2- 8 f 0.4333(1) 0.7485(4) 0.04877(7) . 1. 0
O5 O2- 8 f 0.2656(1) 0.5807(4) 0.04285(7) . 1. 0
O6 O2- 8 f 0.2897(1) 0.0416(3) 0.06207(6) . 1. 0
O7 O2- 8 f 0.3358(2) 0.6928(4) 0.11981(6) . 1. 0
O8 O2- 8 f 0.1665(1) 0.4964(3) 0.17028(7) . 1. 0
O9 O2- 8 f 0.1155(1) 0.0468(3) 0.18989(6) . 1. 0
O10 O2- 8 f 0.2199(1) 0.3124(4) 0.24458(6) . 1. 0
O11 O2- 8 f 0.2900(1) 0.1390(3) 0.17005(6) . 1. 0
O12 O2- 8 f 0.4511(1) 0.2500(4) 0.13244(6) . 1. 0
O13 O2- 8 f 0.4547(1) -.0277(4) 0.20176(7) . 1. 0
O14 O2- 8 f 0.4198(1) 0.4351(3) 0.20780(6) . 1. 0
loop_
_atom_site_aniso_label
_atom_site_aniso_type_symbol
_atom_site_aniso_beta_11
_atom_site_aniso_beta_22
_atom_site_aniso_beta_33
_atom_site_aniso_beta_12
_atom_site_aniso_beta_13
_atom_site_aniso_beta_23
Na1 Na1+ 0.00165(6) 0.00751(40) 0.00023(1) -.00050(13) 0.00001(2) -.00005(6)
Na2 Na1+ 0.00409(9) 0.00669(43) 0.00042(2) 0 -.00071(3) 0
Na3 Na1+ 0.00226(5) 0.01307(35) 0.00040(1) 0.00091(11) 0.00027(2) 0.00079(6)
Na4 Na1+ 0.00213(5) 0.01544(34) 0.00027(1) 0.00055(13) 0.00010(1) 0.00006(6)
Na5 Na1+ 0.00224(5) 0.00934(31) 0.00029(1) 0.00083(11) 0.00001(2) 0.00027(5)
Na6 Na1+ 0.00244(5) 0.01243(34) 0.00028(1) -.00042(11) 0.00023(2) -.00001(5)
Na7 Na1+ 0.00221(5) 0.01962(42) 0.00033(1) 0.00228(13) 0.00014(2) -.00001(6)
Na8 Na1+ 0.00215(5) 0.00865(32) 0.00027(1) -.00017(10) 0.00019(1) -.00019(5)
Na9 Na1+ 0.00419(7) 0.01259(36) 0.00029(1) 0.00145(13) 0.00046(2) 0.00008(6)
V1 V5+ 0.00097(1) 0.00566(10) 0.00018 0.00004(3) 0.00015(1) 0.00001(2)
V2 V5+ 0.00097(1) 0.00538(10) 0.00018 0.00013(3) 0.00008(1) -.00001(2)
V3 V5+ 0.00095(1) 0.00488(10) 0.00018 0.00007(3) 0.00010(1) 0.00006(2)
V4 V5+ 0.00088(1) 0.0056(1) 0.00015 0.00012(3) 0.00008(1) 0.00002(2)
O1 O2- 0.00176(7) 0.01153(53) 0.00022(2) 0.00015(18) 0.00026(3) -.00031(8)
O2 O2- 0.00279(9) 0.00674(49) 0.00034(2) -.00060(18) 0.00038(3) -.00036(8)
O3 O2- 0.00296(10) 0.01430(64) 0.00029(2) 0.00182(21) 0.00025(3) 0.00116(9)
O4 O2- 0.00125(7) 0.02745(87) 0.00067(2) -.00062(23) 0.00036(3) -.00113(12)
O5 O2- 0.00186(8) 0.01074(56) 0.00046(2) -.00099(18) 0.00008(3) -.00072(9)
O6 O2- 0.00275(9) 0.00817(51) 0.00029(2) 0.00145(18) 0.00005(3) 0.00018(8)
O7 O2- 0.00414(11) 0.01364(63) 0.00021(2) 0.00102(24) 0.00016(4) 0.00057(9)
O8 O2- 0.00224(9) 0.00853(52) 0.00036(2) 0.00139(18) 0.00011(3) 0.00056(8)
O9 O2- 0.00124(7) 0.01099(53) 0.00034(2) -.00117(16) -.00002(3) 0.00038(8)
O10 O2- 0.00300(9) 0.01301(58) 0.00017(2) -.00014(21) 0.00012(3) -.00027(9)
O11 O2- 0.00113(6) 0.00897(48) 0.00028(2) 0.00019(15) 0.00015(3) -.00043(7)
O12 O2- 0.00171(7) 0.02232(75) 0.00022(2) -.00075(20) 0.00026(3) 0.00005(10)
O13 O2- 0.00227(9) 0.00977(57) 0.00046(2) 0.00128(19) -.00002(4) 0.00063(9)
O14 O2- 0.00189(8) 0.01015(52) 0.00029(2) -.00056(17) 0.00012(3) -.00072(8)
#End of TTdata_35635-ICSD