
#(C) 2019 by FIZ Karlsruhe - Leibniz Institute for Information Infrastructure.  All rights reserved.
data_36048-ICSD
_database_code_ICSD 36048
_audit_creation_date 1983-12-31
_chemical_name_systematic 'Hexasodium decahydroxo-24-oxo-16-boratodicuprate'
_chemical_formula_structural 'Na6 (Cu2 (B16 O24 (O H)10)) (H2 O)12'
_chemical_formula_sum 'H34 B16 Cu2 Na6 O46'
_exptl_crystal_density_diffrn 2.13
_publ_section_title

;
Hexasodium (cyclo-Decahydroxotetracosaoxohexadecaborato) dicuprate(II)
Dodecahydrate, Na6 (Cu2 (B16 O24 (O H)10)) (H2 O)12
;
loop_
_citation_id
_citation_journal_full
_citation_year
_citation_journal_volume
_citation_page_first
_citation_page_last
_citation_journal_id_ASTM
primary 'Acta Crystallographica, Section C: Crystal Structure Communications'
1983 39 20 22 ACSCEE
loop_
_publ_author_name
'Behm, H.'
_cell_length_a 9.171(3)
_cell_length_b 10.744(4)
_cell_length_c 11.784(4)
_cell_angle_alpha 103.08(2)
_cell_angle_beta 110.58(3)
_cell_angle_gamma 109.53(3)
_cell_volume 943.49
_cell_formula_units_Z 1
_symmetry_space_group_name_H-M 'P -1'
_symmetry_Int_Tables_number 2
_refine_ls_R_factor_all 0.033
loop_
_symmetry_equiv_pos_site_id
_symmetry_equiv_pos_as_xyz
1 '-x, -y, -z'
2 'x, y, z'
loop_
_atom_type_symbol
_atom_type_oxidation_number
Cu2+ 2
Na1+ 1
O2- -2
B3+ 3
H1+ 1
loop_
_atom_site_label
_atom_site_type_symbol
_atom_site_symmetry_multiplicity
_atom_site_Wyckoff_symbol
_atom_site_fract_x
_atom_site_fract_y
_atom_site_fract_z
_atom_site_B_iso_or_equiv
_atom_site_occupancy
_atom_site_attached_hydrogens
Cu1 Cu2+ 2 i 0.53833(5) 0.48760(4) 0.38665(3) . 1. 0
Na1 Na1+ 2 i 0.8549(2) 0.0811(2) 0.8773(1) . 1. 0
Na2 Na1+ 2 i 0.8493(2) 0.0483(1) 0.3676(1) . 1. 0
Na3 Na1+ 2 i 0.5737(2) 0.2260(2) 0.8678(2) . 1. 0
O1 O2- 2 i 0.4640(3) 0.0107(3) 0.2523(3) . 1. 0
O2 O2- 2 i 0.7884(4) 0.4431(3) 0.6108(3) . 1. 0
O3 O2- 2 i 0.8991(5) 0.3564(4) 0.8828(4) . 1. 0
O4 O2- 2 i 0.5803(3) 0.1567(3) 0.5257(3) . 1. 0
O5 O2- 2 i 0.7919(3) 0.2007(3) 0.0362(3) . 1. 0
O6 O2- 2 i 0.6468(3) 0.4725(3) 0.9322(2) . 1. 0
O7 O2- 2 i 0.1572(3) 0.3449(3) 0.1580(2) . 1. 0
O8 O2- 2 i 0.8919(3) 0.2856(2) 0.3979(2) . 1. 0
O9 O2- 2 i 0.8796(3) 0.1093(2) 0.6819(2) . 1. 0
O10 O2- 2 i 0.1641(3) 0.0185(2) 0.8372(2) . 1. 0
O11 O2- 2 i 0.3639(3) 0.1766(2) 0.6490(2) . 1. 0
O12 O2- 2 i 0.1876(3) 0.1709(2) 0.2446(2) . 1. 0
O13 O2- 2 i 0.8674(3) 0.4871(2) 0.3596(2) . 1. 0
O14 O2- 2 i 0.1797(3) 0.1691(2) 0.4404(2) . 1. 0
O15 O2- 2 i 0.3952(3) 0.3728(2) 0.4463(2) . 1. 0
O16 O2- 2 i 0.2923(3) 0.3765(2) 0.6435(2) . 1. 0
O17 O2- 2 i 0.0919(3) 0.3427(2) 0.7407(2) . 1. 0
O18 O2- 2 i 0.4269(3) 0.3280(2) 0.2169(2) . 1. 0
O19 O2- 2 i 0.4231(3) 0.2082(2) 0.0110(2) . 1. 0
O20 O2- 2 i 0.1598(3) 0.1344(2) 0.0312(2) . 1. 0
O21 O2- 2 i 0.6437(3) 0.2489(2) 0.2180(2) . 1. 0
O22 O2- 2 i 0.0764(3) 0.1415(2) 0.5943(2) . 1. 0
O23 O2- 2 i 0.6386(3) 0.4467(2) 0.1534(2) . 1. 0
B1 B3+ 2 i 0.2346(4) 0.2205(3) 0.5841(3) . 1. 0
B2 B3+ 2 i 0.2235(4) 0.4471(4) 0.7215(3) . 1. 0
B3 B3+ 2 i 0.5317(4) 0.3095(3) 0.1482(3) . 1. 0
B4 B3+ 2 i 0.2355(4) 0.2464(4) 0.1623(3) . 1. 0
B5 B3+ 2 i 0.2569(4) 0.2411(3) 0.3785(3) . 1. 0
B6 B3+ 2 i 0.2499(5) 0.1223(4) 0.9626(3) . 1. 0
B7 B3+ 2 i 0.7994(5) 0.3422(4) 0.3252(3) . 1. 0
B8 B3+ 2 i 0.0209(4) 0.2001(4) 0.6735(3) . 1. 0
H1 H1+ 2 i 0.9169 0.2748 0.0966 0.06(1) 1. 0
H2 H1+ 2 i 0.6659 0.4799 0.0172 0.05(1) 1. 0
H3 H1+ 2 i 0.3547 -.2429 0.4417 0.05(1) 1. 0
H4 H1+ 2 i 0.0151 -.3475 0.5327 0.04(1) 1. 0
H5 H1+ 2 i 0.5357 0.47734 0.8721 0.06(2) 1. 0
H6 H1+ 2 i 0.114 -.4453 0.3852 0.05(1) 1. 0
H7 H1+ 2 i 0.4281 0.1812 0.6098 0.04(1) 1. 0
H8 H1+ 2 i 0.8432 0.0176 0.6259 0.05(1) 1. 0
H9 H1+ 2 i 0.496 -.049 0.6521 0.07(2) 1. 0
H10 H1+ 2 i 0.2021 -.5057 0.3208 0.06(2) 1. 0
H11 H1+ 2 i 0.0634 -.0328 0.8247 0.04(1) 1. 0
H12 H1+ 2 i 0.4915 -.0683 0.7764 0.07(2) 1. 0
H13 H1+ 2 i -.0295 0.3634 0.8317 0.12(2) 1. 0
H14 H1+ 2 i 0.3491 -.1218 0.4298 0.06(1) 1. 0
H15 H1+ 2 i 0.7481 0.1994 0.0974 0.10(2) 1. 0
H16 H1+ 2 i 0.1947 0.4017 0.1259 0.07(2) 1. 0
H17 H1+ 2 i 0.8448 0.3943 0.8485 0.08(2) 1. 0
loop_
_atom_site_aniso_label
_atom_site_aniso_type_symbol
_atom_site_aniso_U_11
_atom_site_aniso_U_22
_atom_site_aniso_U_33
_atom_site_aniso_U_12
_atom_site_aniso_U_13
_atom_site_aniso_U_23
Cu1 Cu2+ 0.0131(2) 0.0069(2) 0.0117(2) 0.0019(1) 0.0081(1) -.0014(1)
Na1 Na1+ 0.0280(7) 0.0373(8) 0.0281(7) 0.0117(6) 0.0170(6) 0.0135(7)
Na2 Na1+ 0.0320(7) 0.0141(6) 0.0197(6) 0.0079(5) 0.0130(6) 0.0086(6)
Na3 Na1+ 0.0433(9) 0.0347(8) 0.0288(8) 0.0091(7) 0.0095(7) 0.0231(7)
O1 O2- 0.0379(15) 0.0178(12) 0.0325(14) 0.0135(11) 0.0177(12) 0.0061(11)
O2 O2- 0.0265(14) 0.0300(15) 0.0753(23) 0.0065(15) 0.0254(15) 0.0084(12)
O3 O2- 0.0781(25) 0.0885(27) 0.0602(22) 0.0404(20) 0.0542(21) 0.0548(23)
O4 O2- 0.0307(14) 0.0252(13) 0.0434(16) 0.0160(12) 0.0191(13) 0.0102(11)
O5 O2- 0.0311(14) 0.0395(15) 0.0263(13) 0.0128(12) 0.0152(11) 0.0146(12)
O6 O2- 0.0304(13) 0.0313(14) 0.0213(12) 0.0171(11) 0.0146(11) 0.0105(11)
O7 O2- 0.0244(12) 0.0267(13) 0.0324(13) 0.0179(11) 0.0174(11) 0.014(1)
O8 O2- 0.0230(12) 0.0122(11) 0.0253(12) 0.0058(10) -.0007(10) 0.0061(10)
O9 O2- 0.0209(11) 0.0093(10) 0.0288(12) 0.0056(9) 0.0182(10) 0.0013(9)
O10 O2- 0.0163(11) 0.0198(11) 0.0137(11) -.0006(9) 0.0079(9) -.0039(9)
O11 O2- 0.0236(12) 0.0230(12) 0.0221(12) 0.0129(10) 0.0128(10) 0.0125(10)
O12 O2- 0.0148(10) 0.0089(10) 0.0122(10) 0.0021(8) 0.0066(9) -.0032(8)
O13 O2- 0.0180(11) 0.0095(10) 0.0181(11) 0.0043(9) 0.0014(9) 0.0021(9)
O14 O2- 0.0173(11) 0.0072(9) 0.0127(10) 0.0037(9) 0.0086(9) -.0004(8)
O15 O2- 0.0216(11) 0.0093(10) 0.0143(11) 0.0014(9) 0.0122(9) -.0039(9)
O16 O2- 0.0168(11) 0.0068(9) 0.0181(11) 0.0033(8) 0.0121(9) -.0009(8)
O17 O2- 0.0190(11) 0.0085(10) 0.0229(11) 0.0053(9) 0.0159(10) 0.0013(9)
O18 O2- 0.0126(10) 0.0112(10) 0.013(1) 0.0004(8) 0.0079(9) -.0019(8)
O19 O2- 0.0128(10) 0.0111(10) 0.0135(10) 0.0017(8) 0.0071(9) 0.0005(8)
O20 O2- 0.013(1) 0.0190(11) 0.0122(10) 0.0001(9) 0.0062(9) -.0040(9)
O21 O2- 0.0139(10) 0.0076(10) 0.0173(11) 0.0046(8) 0.0027(9) 0.0000(8)
O22 O2- 0.0196(11) 0.0073(9) 0.0194(11) 0.0065(8) 0.0132(9) 0.0012(8)
O23 O2- 0.0141(10) 0.0092(10) 0.0141(10) 0.0063(8) 0.0083(9) 0.0020(8)
B1 B3+ 0.0153(16) 0.0080(15) 0.0148(16) 0.0063(13) 0.0091(14) 0.0018(13)
B2 B3+ 0.0133(16) 0.0107(16) 0.0138(16) 0.0060(13) 0.0074(13) 0.0010(13)
B3 B3+ 0.0117(15) 0.0083(15) 0.0116(15) 0.0019(12) 0.0062(13) 0.0012(13)
B4 B3+ 0.0113(15) 0.0126(16) 0.0112(16) 0.0049(13) 0.0057(13) -.0007(13)
B5 B3+ 0.0130(15) 0.0081(15) 0.0140(16) 0.0053(13) 0.0067(13) 0.0038(13)
B6 B3+ 0.0175(17) 0.0113(16) 0.0114(16) 0.0057(13) 0.0061(13) 0.0025(13)
B7 B3+ 0.0171(17) 0.0137(17) 0.0180(17) 0.0075(14) 0.0103(14) 0.0071(14)
B8 B3+ 0.0136(16) 0.0117(16) 0.0131(16) 0.0056(13) 0.0067(13) 0.0039(13)
#End of TTdata_36048-ICSD