
#(C) 2019 by FIZ Karlsruhe - Leibniz Institute for Information Infrastructure.  All rights reserved.
data_36399-ICSD
_database_code_ICSD 36399
_audit_creation_date 1980-12-31
_audit_update_record 2012-08-01
_chemical_name_systematic 'Disodium tricalcium trisilicate'
_chemical_formula_structural 'Na2 Ca3 (Si3 O10)'
_chemical_formula_sum 'Ca3 Na2 O10 Si3'
_exptl_crystal_density_diffrn 2.88
_publ_section_title

;
Refinement of the crystal structure of Na Ca triorthosilicate Na2 Ca3 (Si3
O10)
;
loop_
_citation_id
_citation_journal_full
_citation_year
_citation_journal_volume
_citation_page_first
_citation_page_last
_citation_journal_id_ASTM
primary Kristallografiya 1980 25 855 857 KRISAJ
loop_
_publ_author_name
'Kuznetsova, T.P.'
'Nevskii, N.N.'
'Plyukhin, V.V.'
'Belov, N.V.'
_cell_length_a 16.2491(43)
_cell_length_b 11.3472(37)
_cell_length_c 5.1472(7)
_cell_angle_alpha 90.
_cell_angle_beta 90.
_cell_angle_gamma 92.97(2)
_cell_volume 947.78
_cell_formula_units_Z 4
_symmetry_space_group_name_H-M 'B 1 1 2/b'
_symmetry_Int_Tables_number 15
_refine_ls_R_factor_all 0.03
loop_
_symmetry_equiv_pos_site_id
_symmetry_equiv_pos_as_xyz
1 'x, y+1/2, -z'
2 '-x, -y, -z'
3 '-x, -y+1/2, z'
4 'x, y, z'
5 'x+1/2, y+1/2, -z+1/2'
6 '-x+1/2, -y, -z+1/2'
7 '-x+1/2, -y+1/2, z+1/2'
8 'x+1/2, y, z+1/2'
loop_
_atom_type_symbol
_atom_type_oxidation_number
Ca2+ 2
Si4+ 4
Na1+ 1
O2- -2
loop_
_atom_site_label
_atom_site_type_symbol
_atom_site_symmetry_multiplicity
_atom_site_Wyckoff_symbol
_atom_site_fract_x
_atom_site_fract_y
_atom_site_fract_z
_atom_site_B_iso_or_equiv
_atom_site_occupancy
_atom_site_attached_hydrogens
Ca1 Ca2+ 4 c 0.25 0.5 0.25 . 1. 0
Ca2 Ca2+ 8 f 0.1518(1) 0.2076(1) 0.2376(2) . 1. 0
Si1 Si4+ 4 e 0 0.25 0.7962(3) . 1. 0
Si2 Si4+ 8 f 0.3491(1) 0.1036(1) 0.1890(2) . 1. 0
Na1 Na1+ 8 f 0.4574(1) 0.0340(1) 0.7329(3) . 1. 0
O1 O2- 8 f 0.4322(2) 0.1860(2) 0.0867(5) . 1. 0
O2 O2- 8 f 0.2735(2) 0.1617(2) 0.0357(5) . 1. 0
O3 O2- 8 f 0.1406(2) 0.0254(2) 0.4347(6) . 1. 0
O4 O2- 8 f 0.0430(2) 0.1515(2) 0.9633(6) . 1. 0
O5 O2- 8 f 0.3440(2) 0.1091(2) 0.5000(6) . 1. 0
loop_
_atom_site_aniso_label
_atom_site_aniso_type_symbol
_atom_site_aniso_beta_11
_atom_site_aniso_beta_22
_atom_site_aniso_beta_33
_atom_site_aniso_beta_12
_atom_site_aniso_beta_13
_atom_site_aniso_beta_23
Ca1 Ca2+ 0.0063(3) 0.0133(6) 0.0539(28) -.0089(6) -.0010(22) 0.0009
Ca2 Ca2+ 0.0040(2) 0.0064(4) 0.0627(20) 0.0002(4) -.0005(15) -.0014(1)
Si1 Si4+ 0.0031(3) 0.0100(7) 0.0496(38) -.0014(8) 0 0
Si2 Si4+ 0.0034(2) 0.0073(5) 0.0512(26) -.0014(5) 0.0031(19) -.0006(1)
Na1 Na1+ 0.0121(4) 0.0195(9) 0.1164(47) 0.0029(10) 0.0009(34) 0.0180(23)
O1 O2- 0.0063(7) 0.0198(16) 0.0721(72) -.0080(17) 0.0027(53) 0
O2 O2- 0.0063(7) 0.0157(15) 0.0805(73) 0.0008(16) 0.0052(53) -.0012(3)
O3 O2- 0.0097(7) 0.0125(15) 0.0948(77) 0.0011(17) -.0025(53) 0.0016(3)
O4 O2- 0.0082(7) 0.0145(15) 0.1093(78) 0.0008(16) 0.0114(55) -.0055(3)
O5 O2- 0.0082(7) 0.0154(15) 0.0792(66) -.0025(16) 0.0019(56) 0.0048
#End of TTdata_36399-ICSD