
#(C) 2019 by FIZ Karlsruhe - Leibniz Institute for Information Infrastructure.  All rights reserved.
data_36530-ICSD
_database_code_ICSD 36530
_audit_creation_date 1992-08-20
_chemical_name_systematic 'Sodium tetraamidoniccolate diammonia'
_chemical_formula_structural 'Na2 (Ni (N H2)4) (N H3)2'
_chemical_formula_sum 'H14 N6 Na2 Ni1'
_exptl_crystal_density_diffrn 1.54
_publ_section_title

;
Partielle Substitution von Nickel durch Natrium in Nickel(II)-amid: Isolierte
Na4Ni2(NH2)8*4NH3-Einheiten in Natriumtetraamidoniccolat(II)-diammoniakat
;
loop_
_citation_id
_citation_journal_full
_citation_year
_citation_journal_volume
_citation_page_first
_citation_page_last
_citation_journal_id_ASTM
primary 'Zeitschrift fuer Anorganische und Allgemeine Chemie (1950) (DE)' 1991
604 113 126 ZAACAB
loop_
_publ_author_name
'Tenten, A.'
'Jacobs, H.'
_cell_length_a 8.932(2)
_cell_length_b 8.932(2)
_cell_length_c 10.984(2)
_cell_angle_alpha 90.
_cell_angle_beta 90.
_cell_angle_gamma 90.
_cell_volume 876.31
_cell_formula_units_Z 4
_symmetry_space_group_name_H-M 'I 4/m'
_symmetry_Int_Tables_number 87
_refine_ls_R_factor_all 0.029
loop_
_symmetry_equiv_pos_site_id
_symmetry_equiv_pos_as_xyz
1 '-y, x, -z'
2 'y, -x, -z'
3 'x, y, -z'
4 '-x, -y, -z'
5 'y, -x, z'
6 '-y, x, z'
7 '-x, -y, z'
8 'x, y, z'
9 '-y+1/2, x+1/2, -z+1/2'
10 'y+1/2, -x+1/2, -z+1/2'
11 'x+1/2, y+1/2, -z+1/2'
12 '-x+1/2, -y+1/2, -z+1/2'
13 'y+1/2, -x+1/2, z+1/2'
14 '-y+1/2, x+1/2, z+1/2'
15 '-x+1/2, -y+1/2, z+1/2'
16 'x+1/2, y+1/2, z+1/2'
loop_
_atom_type_symbol
_atom_type_oxidation_number
Ni2+ 2
Na1+ 1
N3- -3
H1+ 1
loop_
_atom_site_label
_atom_site_type_symbol
_atom_site_symmetry_multiplicity
_atom_site_Wyckoff_symbol
_atom_site_fract_x
_atom_site_fract_y
_atom_site_fract_z
_atom_site_B_iso_or_equiv
_atom_site_occupancy
_atom_site_attached_hydrogens
Ni1 Ni2+ 4 e 0 0 0.3144(1) . 1. 0
Na1 Na1+ 8 h 0.3833(3) 0.2808(3) 0 . 1. 0
N1 N3- 16 i 0.2945(4) 0.4390(4) 0.1723(4) . 1. 0
N2 N3- 8 h 0.2836(7) 0.0265(7) 0 . 1. 0
H1 H1+ 16 i 0.285(5) 0.365(5) 0.215(4) 0.05128 1. 0
H2 H1+ 16 i 0.492(6) 0.233(6) 0.216(4) 0.0641 1. 0
H3 H1+ 16 i 0.216(6) 0.034(7) 0.077(4) 0.08974 1. 0
H4 H1+ 8 h 0.014(9) 0.334(9) 0 0.07692 1. 0
loop_
_atom_site_aniso_label
_atom_site_aniso_type_symbol
_atom_site_aniso_U_11
_atom_site_aniso_U_22
_atom_site_aniso_U_33
_atom_site_aniso_U_12
_atom_site_aniso_U_13
_atom_site_aniso_U_23
Ni1 Ni2+ 0.0489(3) 0.0489(3) 0.0383(5) 0 0 0
Na1 Na1+ 0.044(1) 0.038(1) 0.077(2) -.006(1) 0 0
N1 N3- 0.051(2) 0.054(2) 0.082(3) -.003(2) 0.022(2) 0.013(2)
N2 N3- 0.081(4) 0.043(3) 0.111(5) -.011(3) 0 0
#End of TTdata_36530-ICSD