
#(C) 2019 by FIZ Karlsruhe - Leibniz Institute for Information Infrastructure.  All rights reserved.
data_36643-ICSD
_database_code_ICSD 36643
_audit_creation_date 1993-01-06
_audit_update_record 2011-02-01
_chemical_name_systematic 'Disodium copper indium fluoride'
_chemical_formula_structural 'Na2 Cu In F7'
_chemical_formula_sum 'Cu1 F7 In1 Na2'
_chemical_name_structure_type Na2CuInF7
_exptl_crystal_density_diffrn 3.97
_publ_section_title

;
Copper weberites: Crystal structure and magnetic investigation of Na2 Cu Ga F7
and Na2 Cu In F7
;
loop_
_citation_id
_citation_journal_full
_citation_year
_citation_journal_volume
_citation_page_first
_citation_page_last
_citation_journal_id_ASTM
primary 'Zeitschrift fuer Anorganische und Allgemeine Chemie (1950) (DE)' 1992
610 67 74 ZAACAB
loop_
_publ_author_name
'Ruchaud, N.'
'Grannec, J.'
'Gravereau, P.'
'Nunez, P.'
'Tressaud, A.'
'Massa, W.'
'Frenzen, G.'
'Babel, D.'
_cell_length_a 7.318(1)
_cell_length_b 10.602(2)
_cell_length_c 7.712(1)
_cell_angle_alpha 90.
_cell_angle_beta 90.
_cell_angle_gamma 90.
_cell_volume 598.34
_cell_formula_units_Z 4
_symmetry_space_group_name_H-M 'P m n b'
_symmetry_Int_Tables_number 62
_refine_ls_R_factor_all 0.025
loop_
_symmetry_equiv_pos_site_id
_symmetry_equiv_pos_as_xyz
1 'x, y+1/2, -z+1/2'
2 '-x+1/2, y, z'
3 'x+1/2, -y+1/2, z+1/2'
4 '-x, -y, -z'
5 '-x, -y+1/2, z+1/2'
6 'x+1/2, -y, -z'
7 '-x+1/2, y+1/2, -z+1/2'
8 'x, y, z'
loop_
_atom_type_symbol
_atom_type_oxidation_number
Na1+ 1
Cu2+ 2
In3+ 3
F1- -1
loop_
_atom_site_label
_atom_site_type_symbol
_atom_site_symmetry_multiplicity
_atom_site_Wyckoff_symbol
_atom_site_fract_x
_atom_site_fract_y
_atom_site_fract_z
_atom_site_B_iso_or_equiv
_atom_site_occupancy
_atom_site_attached_hydrogens
Na1 Na1+ 4 b 0 0 0.5 . 1. 0
Na2 Na1+ 4 c 0.25 0.2378(1) 0.2182(2) . 1. 0
Cu1 Cu2+ 4 a 0 0 0 . 1. 0
In1 In3+ 4 c 0.25 0.23215(2) 0.72653(3) . 1. 0
F1 F1- 4 c 0.25 0.0368(2) 0.0434(3) . 1. 0
F2 F1- 4 c 0.25 0.3314(2) 0.9561(3) . 1. 0
F3 F1- 4 c 0.25 0.1429(2) 0.4843(3) . 1. 0
F4 F1- 8 d -.0481(2) 0.1409(1) 0.1499(2) . 1. 0
F5 F1- 8 d 0.0205(2) 0.1219(1) 0.7680(2) . 1. 0
loop_
_atom_site_aniso_label
_atom_site_aniso_type_symbol
_atom_site_aniso_U_11
_atom_site_aniso_U_22
_atom_site_aniso_U_33
_atom_site_aniso_U_12
_atom_site_aniso_U_13
_atom_site_aniso_U_23
Na1 Na1+ 0.027(1) 0.034(1) 0.037(1) -.0120(8) 0.0034(8) -.0155(8)
Na2 Na1+ 0.0218(7) 0.0262(8) 0.0171(7) 0 0 0.0048(6)
Cu1 Cu2+ 0.0062(2) 0.0078(1) 0.0115(2) -.0003(1) 0.0010(1) -.0013(1)
In1 In3+ 0.0090(1) 0.0089(1) 0.0121(1) 0 0 0.0000(1)
F1 F1- 0.008(1) 0.036(2) 0.045(2) 0 0 -.022(1)
F2 F1- 0.031(1) 0.019(2) 0.014(2) 0 0 -.0026(8)
F3 F1- 0.023(1) 0.021(1) 0.014(1) 0 0 -.0032(8)
F4 F1- 0.0162(7) 0.0186(7) 0.038(1) -.0028(6) 0.0038(7) -.0138(7)
F5 F1- 0.0196(7) 0.0190(7) 0.0211(7) -.0070(5) 0.0001(6) 0.0066(6)
#End of TTdata_36643-ICSD