
#(C) 2019 by FIZ Karlsruhe - Leibniz Institute for Information Infrastructure.  All rights reserved.
data_36661-ICSD
_database_code_ICSD 36661
_audit_creation_date 1993-01-06
_audit_update_record 2013-08-01
_chemical_name_systematic 'Tetrasodium gold(III) cobalt(III) oxide'
_chemical_formula_structural 'Na4 (Au Co O5)'
_chemical_formula_sum 'Au1 Co1 Na4 O5'
_exptl_crystal_density_diffrn 4.97
_publ_section_title
'Neuartige Maeander mit Co3+ und Au3+: Na4(AuCoO5) = Na8((O2/2(CoO)O2AuO2/2)2)'
loop_
_citation_id
_citation_journal_full
_citation_year
_citation_journal_volume
_citation_page_first
_citation_page_last
_citation_journal_id_ASTM
primary 'Zeitschrift fuer Anorganische und Allgemeine Chemie (1950) (DE)' 1992
612 89 96 ZAACAB
loop_
_publ_author_name
'Mader, K.'
'Hoppe, R.'
_cell_length_a 5.5569(4)
_cell_length_b 10.4211(8)
_cell_length_c 5.5569(4)
_cell_angle_alpha 90.
_cell_angle_beta 117.387(5)
_cell_angle_gamma 90.
_cell_volume 285.73
_cell_formula_units_Z 2
_symmetry_space_group_name_H-M 'P 1 21/m 1'
_symmetry_Int_Tables_number 11
_refine_ls_R_factor_all 0.0316
loop_
_symmetry_equiv_pos_site_id
_symmetry_equiv_pos_as_xyz
1 'x, -y+1/2, z'
2 '-x, -y, -z'
3 '-x, y+1/2, -z'
4 'x, y, z'
loop_
_atom_type_symbol
_atom_type_oxidation_number
Au3+ 3
Co3+ 3
Na1+ 1
O2- -2
loop_
_atom_site_label
_atom_site_type_symbol
_atom_site_symmetry_multiplicity
_atom_site_Wyckoff_symbol
_atom_site_fract_x
_atom_site_fract_y
_atom_site_fract_z
_atom_site_B_iso_or_equiv
_atom_site_occupancy
_atom_site_attached_hydrogens
Au1 Au3+ 2 a 0 0 0 . 1. 0
Co1 Co3+ 2 e 0.2663(2) 0.75 0.2665(2) . 1. 0
Na1 Na1+ 4 f 0.3320(6) 0.0002(2) 0.6685(7) . 1. 0
Na2 Na1+ 2 e 0.6335(7) 0.75 0.0052(7) . 1. 0
Na3 Na1+ 2 e 0.9929(8) 0.25 0.3638(7) . 1. 0
O1 O2- 4 f 0.7134(8) 0.3827(4) 0.9888(9) . 1. 0
O2 O2- 4 f 0.9891(8) 0.3828(4) 0.7113(8) . 1. 0
O3 O2- 2 e 0.4330(18) 0.25 0.4303(18) . 1. 0
loop_
_atom_site_aniso_label
_atom_site_aniso_type_symbol
_atom_site_aniso_U_11
_atom_site_aniso_U_22
_atom_site_aniso_U_33
_atom_site_aniso_U_12
_atom_site_aniso_U_13
_atom_site_aniso_U_23
Au1 Au3+ 0.0098(2) 0.0071(2) 0.0058(2) 0.0003(1) 0.0028(1) 0.0003(1)
Co1 Co3+ 0.0084(4) 0.0112(5) 0.0031(4) 0.0075(20) 0 0
Na1 Na1+ 0.0135(14) 0.0196(16) 0.0094(15) -.0026(7) -.0003(12) -.0028(7)
Na2 Na1+ 0.0124(15) 0.0191(19) 0.0088(14) 0.0137(50) 0 0
Na3 Na1+ 0.0157(16) 0.0197(19) 0.0079(14) -.0094(67) 0 0
O1 O2- 0.0181(19) 0.0114(19) 0.0148(20) -.0023(14) 0.0124(18) -.0007(15)
O2 O2- 0.0170(19) 0.0145(20) 0.0120(19) -.0015(15) 0.0088(17) -.0015(15)
O3 O2- 0.0183(35) 0.0797(82) 0.013(3) 0.022(12) 0 0
#End of TTdata_36661-ICSD