
#(C) 2019 by FIZ Karlsruhe - Leibniz Institute for Information Infrastructure.  All rights reserved.
data_37167-ICSD
_database_code_ICSD 37167
_audit_creation_date 1983-12-31
_chemical_name_systematic 'Disodium hydrogencyclo-triphosphate'
_chemical_formula_structural 'Na2 H P3 O9'
_chemical_formula_sum 'H1 Na2 O9 P3'
_chemical_name_structure_type Na2H(PO3)3
_exptl_crystal_density_diffrn 2.5
_publ_section_title
'Structure d'un Trimetaphosphate Acide de Sodium: Na2 H P3 O9'
loop_
_citation_id
_citation_journal_full
_citation_year
_citation_journal_volume
_citation_page_first
_citation_page_last
_citation_journal_id_ASTM
primary 'Acta Crystallographica, Section C: Crystal Structure Communications'
1983 39 809 810 ACSCEE
loop_
_publ_author_name
'Averbuch-Pouchot, M.T.'
'Guitel, J.C.'
'Durif, A.'
_cell_length_a 7.788(5)
_cell_length_b 7.809(5)
_cell_length_c 7.129(5)
_cell_angle_alpha 116.69(5)
_cell_angle_beta 103.41(5)
_cell_angle_gamma 81.94(5)
_cell_volume 376.48
_cell_formula_units_Z 2
_symmetry_space_group_name_H-M 'P -1'
_symmetry_Int_Tables_number 2
_refine_ls_R_factor_all 0.034
loop_
_symmetry_equiv_pos_site_id
_symmetry_equiv_pos_as_xyz
1 '-x, -y, -z'
2 'x, y, z'
loop_
_atom_type_symbol
_atom_type_oxidation_number
P5+ 5
Na1+ 1
O2- -2
H1+ 1
loop_
_atom_site_label
_atom_site_type_symbol
_atom_site_symmetry_multiplicity
_atom_site_Wyckoff_symbol
_atom_site_fract_x
_atom_site_fract_y
_atom_site_fract_z
_atom_site_B_iso_or_equiv
_atom_site_occupancy
_atom_site_attached_hydrogens
P1 P5+ 2 i 0.5448(1) 0.6271(1) 0.8196(1) . 1. 0
P2 P5+ 2 i 0.7914(1) 0.8433(1) 0.7832(1) . 1. 0
P3 P5+ 2 i 0.7939(1) 0.8448(1) 0.1900(1) . 1. 0
Na1 Na1+ 2 i 0.1456(1) 0.6520(2) 0.4854(2) . 1. 0
Na2 Na1+ 2 i 0.1614(2) 0.6476(2) -.0166(2) . 1. 0
O1 O2- 2 i 0.3996(3) 0.2385(3) 0.2754(3) . 1. 0
O2 O2- 2 i 0.8336(3) 0.9328(3) 0.0399(3) . 1. 0
O3 O2- 2 i 0.6025(3) 0.7643(3) 0.0756(3) . 1. 0
O4 O2- 2 i 0.6612(3) 0.4516(3) 0.7633(3) . 1. 0
O5 O2- 2 i 0.6499(3) 0.3778(3) 0.2304(3) . 1. 0
O6 O2- 2 i 0.7711(3) 0.0162(3) 0.7370(3) . 1. 0
O7 O2- 2 i 0.9250(3) 0.6912(3) 0.6945(3) . 1. 0
O8 O2- 2 i 0.7776(3) 0.0182(3) 0.3973(3) . 1. 0
O9 O2- 2 i 0.9269(3) 0.6910(3) 0.1951(3) . 1. 0
H1 H1+ 2 i 0.784(8) 0.021(8) 0.520(8) 6.6 1. 0
loop_
_atom_site_aniso_label
_atom_site_aniso_type_symbol
_atom_site_aniso_beta_11
_atom_site_aniso_beta_22
_atom_site_aniso_beta_33
_atom_site_aniso_beta_12
_atom_site_aniso_beta_13
_atom_site_aniso_beta_23
P1 P5+ 0.00337(9) 0.00665(10) 0.0068(1) -.0004(2) 0.0006(2) 0.0032(2)
P2 P5+ 0.00441(9) 0.00534(9) 0.0062(1) -.0001(2) 0.0012(2) 0.0029(1)
P3 P5+ 0.00474(10) 0.00545(9) 0.0053(1) 0.0000(2) 0.0007(2) 0.0024(1)
Na1 Na1+ 0.0068(2) 0.0082(2) 0.0090(2) 0.0001(3) 0.0013(3) 0.0036(3)
Na2 Na1+ 0.0067(2) 0.0096(2) 0.0107(2) 0.0009(3) 0.0025(3) 0.0053(3)
O1 O2- 0.0045(3) 0.0088(3) 0.0074(3) -.0008(5) 0.0005(5) 0.0046(4)
O2 O2- 0.0070(3) 0.0075(3) 0.0066(3) -.0022(5) 0.0004(5) 0.0029(5)
O3 O2- 0.0046(3) 0.0083(3) 0.0060(3) -.0010(5) 0.0011(5) 0.0027(5)
O4 O2- 0.0066(3) 0.0077(3) 0.0096(4) 0.0011(6) 0.0018(6) 0.0035(5)
O5 O2- 0.0037(3) 0.0120(3) 0.0111(4) -.0011(5) 0.0004(5) 0.0064(5)
O6 O2- 0.0092(3) 0.0075(3) 0.0094(3) -.0003(5) 0.0023(6) 0.0052(4)
O7 O2- 0.0050(3) 0.0073(3) 0.0117(5) 0.0005(6) 0.0029(6) 0.0026(5)
O8 O2- 0.0103(4) 0.0068(3) 0.0054(3) -.0004(9) 0.00222(6) 0.0017(5)
O9 O2- 0.0056(3) 0.0075(3) 0.0106(4) 0.0003(5) 0.0002(6) 0.0042(5)
#End of TTdata_37167-ICSD