
#(C) 2019 by FIZ Karlsruhe - Leibniz Institute for Information Infrastructure.  All rights reserved.
data_37171-ICSD
_database_code_ICSD 37171
_audit_creation_date 1983-12-31
_audit_update_record 2012-02-01
_chemical_name_systematic 'Strontium disodium cyclo-tetraphosphate'
_chemical_formula_structural 'Sr Na2 (P4 O12)'
_chemical_formula_sum 'Na2 O12 P4 Sr1'
_chemical_name_structure_type SrNa2P4O12
_exptl_crystal_density_diffrn 3.08
_publ_section_title
'Structure d'un tetrametaphosphate de sodium-strontium: Sr Na2 P4 O12'
loop_
_citation_id
_citation_journal_full
_citation_year
_citation_journal_volume
_citation_page_first
_citation_page_last
_citation_journal_id_ASTM
primary 'Acta Crystallographica, Section C: Crystal Structure Communications'
1983 39 811 812 ACSCEE
loop_
_publ_author_name
'Averbuch-Pouchot, M.T.'
'Durif, A.'
_cell_length_a 9.838(5)
_cell_length_b 9.838(5)
_cell_length_c 5.003(3)
_cell_angle_alpha 90.
_cell_angle_beta 90.
_cell_angle_gamma 90.
_cell_volume 484.22
_cell_formula_units_Z 2
_symmetry_space_group_name_H-M 'P 4/n b m Z'
_symmetry_Int_Tables_number 125
_refine_ls_R_factor_all 0.02
loop_
_symmetry_equiv_pos_site_id
_symmetry_equiv_pos_as_xyz
1 'y+1/2, x+1/2, z'
2 'y, -x+1/2, z'
3 '-y+1/2, x, z'
4 '-y, -x, z'
5 '-y+1/2, -x+1/2, -z'
6 '-y, x+1/2, -z'
7 'y+1/2, -x, -z'
8 'y, x, -z'
9 'x+1/2, y+1/2, -z'
10 '-x+1/2, y, -z'
11 'x, -y+1/2, -z'
12 '-x, -y, -z'
13 '-x+1/2, -y+1/2, z'
14 'x+1/2, -y, z'
15 '-x, y+1/2, z'
16 'x, y, z'
loop_
_atom_type_symbol
_atom_type_oxidation_number
Sr2+ 2
P5+ 5
Na1+ 1
O2- -2
loop_
_atom_site_label
_atom_site_type_symbol
_atom_site_symmetry_multiplicity
_atom_site_Wyckoff_symbol
_atom_site_fract_x
_atom_site_fract_y
_atom_site_fract_z
_atom_site_B_iso_or_equiv
_atom_site_occupancy
_atom_site_attached_hydrogens
Sr1 Sr2+ 2 b 0.25 0.25 0.5 . 1. 0
P1 P5+ 8 k 0.53755(6) 0.25 0 . 1. 0
Na1 Na1+ 4 f 0 0 0.5 . 1. 0
O1 O2- 8 m -.3602 0.3602 0.1301(4) . 1. 0
O2 O2- 16 n 0.1892(2) 0.0366(2) 0.2279(3) . 1. 0
loop_
_atom_site_aniso_label
_atom_site_aniso_type_symbol
_atom_site_aniso_beta_11
_atom_site_aniso_beta_22
_atom_site_aniso_beta_33
_atom_site_aniso_beta_12
_atom_site_aniso_beta_13
_atom_site_aniso_beta_23
Sr1 Sr2+ 0.00127 0.00127(4) 0.0066(1) 0 0 0
P1 P5+ 0.00111(4) 0.00134(4) 0.0057(2) 0 0 0.0007(3)
Na1 Na1+ 0.0044 0.0044(2) 0.0141(6) -.0022(2) 0.004 -.004
O1 O2- 0.0018 0.0018(2) 0.0064(6) -.0005(2) 0.0002 -.0002(5)
O2 O2- 0.0023(1) 0.0020(1) 0.0084(4) 0.0001(1) 0.0012(2) -.0013(2)
#End of TTdata_37171-ICSD