
#(C) 2019 by FIZ Karlsruhe - Leibniz Institute for Information Infrastructure.  All rights reserved.
data_37358-ICSD
_database_code_ICSD 37358
_audit_creation_date 1985-05-07
_audit_update_record 1998-06-29
_chemical_name_systematic 'Sodium potassium alumosilicate *'
_chemical_formula_structural 'Na3 K (Si0.553 Al0.447)8 O16'
_chemical_formula_sum 'Al3.576 K1 Na3 O16 Si4.424'
_chemical_name_structure_type KNa3Al4(SiO4)4
_chemical_name_mineral 'Nepheline (heated to 1180 K)'
_exptl_crystal_density_diffrn 2.68
_cell_measurement_temperature 281.
_publ_section_title
'Refinement of the nepheline structure at several temperatures'
loop_
_citation_id
_citation_journal_full
_citation_year
_citation_journal_volume
_citation_page_first
_citation_page_last
_citation_journal_id_ASTM
primary 'Zeitschrift fuer Kristallographie' 1970 132 45 70 ZEKRDZ
loop_
_publ_author_name
'Foreman, N.'
'Peacor, D.R.'
_cell_length_a 9.993(2)
_cell_length_b 9.993(2)
_cell_length_c 8.374(3)
_cell_angle_alpha 90.
_cell_angle_beta 90.
_cell_angle_gamma 120.
_cell_volume 724.19
_cell_formula_units_Z 2
_symmetry_space_group_name_H-M 'P 63'
_symmetry_Int_Tables_number 173
_refine_ls_R_factor_all 0.048
loop_
_symmetry_equiv_pos_site_id
_symmetry_equiv_pos_as_xyz
1 'x-y, x, z+1/2'
2 'y, -x+y, z+1/2'
3 '-x, -y, z+1/2'
4 '-x+y, -x, z'
5 '-y, x-y, z'
6 'x, y, z'
loop_
_atom_type_symbol
_atom_type_oxidation_number
Na1+ 1
K1+ 1
Si4+ 4
Al3+ 3
Si4+ 4
Al3+ 3
Si4+ 4
Al3+ 3
Si4+ 4
Al3+ 3
O2- -2
loop_
_atom_site_label
_atom_site_type_symbol
_atom_site_symmetry_multiplicity
_atom_site_Wyckoff_symbol
_atom_site_fract_x
_atom_site_fract_y
_atom_site_fract_z
_atom_site_B_iso_or_equiv
_atom_site_occupancy
_atom_site_attached_hydrogens
Na1 Na1+ 6 c 0.4427(3) 0.9973(3) 0.9992(16) 1.8 1. 0
K1 K1+ 2 a 0 0 0.9986(22) 4.6 1. 0
Si1 Si4+ 2 b 0.6667 0.3333 0.1961(13) 1.2 0.27 0
Al1 Al3+ 2 b 0.6667 0.3333 0.1961(13) 1.2 0.73 0
Si2 Si4+ 2 b 0.6667 0.3333 0.8053(13) 1.6 0.91 0
Al2 Al3+ 2 b 0.6667 0.3333 0.8053(13) 1.6 0.09 0
Si3 Si4+ 6 c 0.3334(4) 0.0935(4) 0.3095 1. 0.88 0
Al3 Al3+ 6 c 0.3334(4) 0.0935(4) 0.3095 1. 0.12 0
Si4 Si4+ 6 c 0.3325(4) 0.0930(4) 0.6820(3) 1. 0.2 0
Al4 Al3+ 6 c 0.3325(4) 0.0930(4) 0.6820(3) 1. 0.8 0
O1 O2- 6 c 0.7064(18) 0.3351(29) 0.9915(63) 3.7 0.3333 0
O2 O2- 6 c 0.3154(7) 0.0256(6) 0.4901(23) 2.4 1. 0
O3 O2- 6 c 0.5230(11) 0.1744(10) 0.7371(21) 2.9 1. 0
O4 O2- 6 c 0.5111(11) 0.1614(11) 0.2509(22) 2.2 1. 0
O5 O2- 6 c 0.2882(10) 0.2297(9) 0.3161(19) 0.9 1. 0
O6 O2- 6 c 0.2637(10) 0.2241(10) 0.6921(19) 2. 1. 0
#End of TTdata_37358-ICSD