
#(C) 2019 by FIZ Karlsruhe - Leibniz Institute for Information Infrastructure.  All rights reserved.
data_38004-ICSD
_database_code_ICSD 38004
_audit_creation_date 1980-01-01
_audit_update_record 1984-09-27
_chemical_name_systematic '0.35-Sodium 0.65-potassium niobate - L'
_chemical_formula_structural 'Na0.35 K0.65 Nb O3'
_chemical_formula_sum 'K0.65 Na0.35 Nb1 O3'
_chemical_name_structure_type (Na,K)NbO3
_exptl_crystal_density_diffrn 4.64
_publ_section_title

;
Structural Phase Transitions in Sodium-Potassium Niobate Solid Solutions by
Neutron Powder Diffraction
;
loop_
_citation_id
_citation_journal_full
_citation_year
_citation_journal_volume
_citation_page_first
_citation_page_last
_citation_journal_id_ASTM
primary

;
Acta Crystallographica, Section A: Crystal Physics, Diffraction, Theoretical
and General Crystallography
; 1978 34 309 317 ACACBN
loop_
_publ_author_name
'Ahtee, M.'
'Hewat, A.W.'
_cell_length_a 7.9751(7)
_cell_length_b 7.8620(4)
_cell_length_c 7.9565(6)
_cell_angle_alpha 90.
_cell_angle_beta 90.340(4)
_cell_angle_gamma 90.
_cell_volume 498.87
_cell_formula_units_Z 8
_symmetry_space_group_name_H-M 'P 1 m 1'
_symmetry_Int_Tables_number 6
_refine_ls_R_factor_all 0.092
loop_
_symmetry_equiv_pos_site_id
_symmetry_equiv_pos_as_xyz
1 'x, -y, z'
2 'x, y, z'
loop_
_atom_type_symbol
_atom_type_oxidation_number
Na1+ 1
K1+ 1
Na1+ 1
K1+ 1
Na1+ 1
K1+ 1
Na1+ 1
K1+ 1
Na1+ 1
K1+ 1
Na1+ 1
K1+ 1
Na1+ 1
K1+ 1
Na1+ 1
K1+ 1
Nb5+ 5
O2- -2
loop_
_atom_site_label
_atom_site_type_symbol
_atom_site_symmetry_multiplicity
_atom_site_Wyckoff_symbol
_atom_site_fract_x
_atom_site_fract_y
_atom_site_fract_z
_atom_site_B_iso_or_equiv
_atom_site_occupancy
_atom_site_attached_hydrogens
Na1 Na1+ 1 a 0.260(2) 0 0.226(2) . 0.35 0
K1 K1+ 1 a 0.260(2) 0 0.226(2) . 0.65 0
Na2 Na1+ 1 a 0.274 0 0.74 . 0.35 0
K2 K1+ 1 a 0.274 0 0.74 . 0.65 0
Na3 Na1+ 1 b 0.26 0.5 0.226 . 0.35 0
K3 K1+ 1 b 0.26 0.5 0.226 . 0.65 0
Na4 Na1+ 1 b 0.26 0.5 0.74 . 0.35 0
K4 K1+ 1 b 0.26 0.5 0.74 . 0.65 0
Na5 Na1+ 1 a 0.76 0 0.726 . 0.35 0
K5 K1+ 1 a 0.76 0 0.726 . 0.65 0
Na6 Na1+ 1 a 0.774 0 0.24 . 0.35 0
K6 K1+ 1 a 0.774 0 0.24 . 0.65 0
Na7 Na1+ 1 b 0.76 0.5 0.726 . 0.35 0
K7 K1+ 1 b 0.76 0.5 0.726 . 0.65 0
Na8 Na1+ 1 b 0.76 0.5 0.226 . 0.35 0
K8 K1+ 1 b 0.76 0.5 0.226 . 0.65 0
Nb1 Nb5+ 2 c 0.0171(4) 0.2483(13) -.0171 . 1. 0
Nb2 Nb5+ 2 c 0.5171(4) 0.2483(13) 0.4829 . 1. 0
Nb3 Nb5+ 2 c 0.0171(4) 0.2483(13) 0.4829 . 1. 0
Nb4 Nb5+ 2 c 0.5171(4) 0.2483(13) 0.9829 . 1. 0
O1 O2- 1 a -.004(3) 0 -.003(2) . 1. 0
O2 O2- 1 a 0.004(3) 0 0.503 . 1. 0
O3 O2- 1 b 0.004(3) 0.5 0.003(2) . 1. 0
O4 O2- 1 b -.004(3) 0.5 0.497 . 1. 0
O5 O2- 2 c 0.0128(6) 0.247 0.25 . 1. 0
O6 O2- 2 c 0.25 0.246 -.0128 . 1. 0
O7 O2- 2 c -.0128(6) 0.253 0.75 . 1. 0
O8 O2- 2 c 0.25 0.254 0.5628 . 1. 0
O9 O2- 1 a 0.496 0 0.497 . 1. 0
O10 O2- 1 a 0.504 0 0.003 . 1. 0
O11 O2- 1 b 0.504 0.5 0.503 . 1. 0
O12 O2- 1 b 0.496 0.5 0.997 . 1. 0
O13 O2- 2 c 0.5128 0.247 0.75 . 1. 0
O14 O2- 2 c 0.75 0.246 0.4872 . 1. 0
O15 O2- 2 c 0.4872 0.253 0.25 . 1. 0
O16 O2- 2 c 0.75 0.254 0.0628 . 1. 0
loop_
_atom_site_aniso_label
_atom_site_aniso_type_symbol
_atom_site_aniso_B_11
_atom_site_aniso_B_22
_atom_site_aniso_B_33
_atom_site_aniso_B_12
_atom_site_aniso_B_13
_atom_site_aniso_B_23
Na1 Na1+ 1.69(26) 1.87(31) 1.69 2.95(74) 0 0
K1 K1+ 1.69(26) 1.87(31) 1.69 2.95(74) 0 0
Na2 Na1+ 1.69(26) 1.87(31) 1.69 2.95(74) 0 0
K2 K1+ 1.69(26) 1.87(31) 1.69 2.95(74) 0 0
Na3 Na1+ 1.69(26) 1.87(31) 1.69 2.95(74) 0 0
K3 K1+ 1.69(26) 1.87(31) 1.69 2.95(74) 0 0
Na4 Na1+ 1.69(26) 1.87(31) 1.69 2.95(74) 0 0
K4 K1+ 1.69(26) 1.87(31) 1.69 2.95(74) 0 0
Na5 Na1+ 1.69(26) 1.87(31) 1.69 2.95(74) 0 0
K5 K1+ 1.69(26) 1.87(31) 1.69 2.95(74) 0 0
Na6 Na1+ 1.69(26) 1.87(31) 1.69 2.95(74) 0 0
K6 K1+ 1.69(26) 1.87(31) 1.69 2.95(74) 0 0
Na7 Na1+ 1.69(26) 1.87(31) 1.69 2.95(74) 0 0
K7 K1+ 1.69(26) 1.87(31) 1.69 2.95(74) 0 0
Na8 Na1+ 1.69(26) 1.87(31) 1.69 2.95(74) 0 0
K8 K1+ 1.69(26) 1.87(31) 1.69 2.95(74) 0 0
Nb1 Nb5+ 0.65(11) 0.52(14) 0.65 0.12(31) 0.14(14) -.44(30)
Nb2 Nb5+ 0.65(11) 0.52(14) 0.65 0.12(31) 0.14(14) -.44(30)
Nb3 Nb5+ 0.65(11) 0.52(14) 0.65 0.12(31) 0.14(14) -.44(30)
Nb4 Nb5+ 0.65(11) 0.52(14) 0.65 0.12(31) 0.14(14) -.44(30)
O1 O2- 0.82(32) 0.65(14) 1.77(31) 5.130(54) 0 0
O2 O2- 0.82(32) 0.65(14) 1.77(31) 5.130(54) 0 0
O3 O2- 0.82(32) 0.65(14) 1.77(31) 5.130(54) 0 0
O4 O2- 0.82(32) 0.65(14) 1.77(31) 5.130(54) 0 0
O5 O2- 1.90(16) 1.77 0.79(12) -.15(44) 0.12(14) 1.03(28)
O6 O2- 1.90(16) 1.77 0.79(12) -.15(44) 0.12(14) 1.03(28)
O7 O2- 1.90(16) 1.77 0.79(12) -.15(44) 0.12(14) 1.03(28)
O8 O2- 1.90(16) 1.77 0.79(12) -.15(44) 0.12(14) 1.03(28)
O9 O2- 0.82(32) 0.65(14) 1.77(31) 5.130(54) 0 0
O10 O2- 0.82(32) 0.65(14) 1.77(31) 5.130(54) 0 0
O11 O2- 0.82(32) 0.65(14) 1.77(31) 5.130(54) 0 0
O12 O2- 0.82(32) 0.65(14) 1.77(31) 5.130(54) 0 0
O13 O2- 1.90(16) 1.77 0.79(12) -.15(44) 0.12(14) 1.03(28)
O14 O2- 1.90(16) 1.77 0.79(12) -.15(44) 0.12(14) 1.03(28)
O15 O2- 1.90(16) 1.77 0.79(12) -.15(44) 0.12(14) 1.03(28)
O16 O2- 1.90(16) 1.77 0.79(12) -.15(44) 0.12(14) 1.03(28)
#End of TTdata_38004-ICSD