
#(C) 2019 by FIZ Karlsruhe - Leibniz Institute for Information Infrastructure.  All rights reserved.
data_380310-ICSD
_database_code_ICSD 380310
_audit_creation_date 2010-02-01
_chemical_name_systematic
'Europium potassium sodium tantalum oxide (4/2/2/2/13)'
_chemical_formula_structural 'Eu4 K2 Na2 Ta2 O13'
_chemical_formula_sum 'Eu4 K2 Na2 O13 Ta2'
_chemical_name_structure_type K2Na2Gd4Nb2O13
_exptl_crystal_density_diffrn 6.31
_cell_measurement_temperature 294.
_publ_section_title

;
Crystal growth, structural properties, and photophysical characterization of
Ln4 Na2 K2 M2 O13 (M = Nb, Ta; Ln = Nd, Sm, Eu, Gd)
;
loop_
_citation_id
_citation_journal_full
_citation_year
_citation_journal_volume
_citation_page_first
_citation_page_last
_citation_journal_id_ASTM
primary 'Inorganic Chemistry' 2009 48 8220 8226 INOCAJ
loop_
_publ_author_name
'Jagau, T.C.'
'Roof, I.P.'
'Smith, M.D.'
'zur Loye, H.C.'
_cell_length_a 24.1177(7)
_cell_length_b 5.6600(2)
_cell_length_c 11.2030(3)
_cell_angle_alpha 90.
_cell_angle_beta 116.430(1)
_cell_angle_gamma 90.
_cell_volume 1369.44
_cell_formula_units_Z 4
_symmetry_space_group_name_H-M 'C 1 2/c 1'
_symmetry_Int_Tables_number 15
_refine_ls_R_factor_all 0.0355
loop_
_symmetry_equiv_pos_site_id
_symmetry_equiv_pos_as_xyz
1 'x, -y, z+1/2'
2 '-x, -y, -z'
3 '-x, y, -z+1/2'
4 'x, y, z'
5 'x+1/2, -y+1/2, z+1/2'
6 '-x+1/2, -y+1/2, -z'
7 '-x+1/2, y+1/2, -z+1/2'
8 'x+1/2, y+1/2, z'
loop_
_atom_type_symbol
_atom_type_oxidation_number
Eu3+ 3
Ta5+ 5
K1+ 1
Na1+ 1
O2- -2
loop_
_atom_site_label
_atom_site_type_symbol
_atom_site_symmetry_multiplicity
_atom_site_Wyckoff_symbol
_atom_site_fract_x
_atom_site_fract_y
_atom_site_fract_z
_atom_site_B_iso_or_equiv
_atom_site_occupancy
_atom_site_attached_hydrogens
Eu1 Eu3+ 8 f 0.437379(15) 0.04440(6) 0.55104(3) 0.00744(7) 1 0
Eu2 Eu3+ 8 f 0.062431(15) 0.03524(6) 0.17279(3) 0.00767(7) 1 0
Ta1 Ta5+ 8 f 0.349494(12) 0.03398(5) 0.21818(2) 0.00698(6) 1 0
K1 K1+ 8 f 0.25061(8) 0.0522(3) 0.36682(17) 0.0189(3) 1 0
Na1 Na1+ 8 f 0.15941(14) 0.0374(5) 0.0239(3) 0.0112(5) 1 0
O1 O2- 8 f 0.3680(2) 0.2749(8) 0.3583(5) 0.0103(9) 1 0
O2 O2- 8 f 0.3652(2) 0.2260(8) 0.6229(5) 0.0099(9) 1 0
O3 O2- 8 f 0.1302(2) 0.3098(8) 0.1377(5) 0.0095(9) 1 0
O4 O2- 8 f 0.2653(2) 0.0625(9) 0.1247(5) 0.0138(10) 1 0
O5 O2- 4 e 0. 0.2425(12) 0.25 0.0102(13) 1 0
O6 O2- 8 f 0.3994(2) -0.2304(8) 0.6601(5) 0.0092(9) 1 0
O7 O2- 8 f 0.5009(2) 0.2504(8) 0.4772(5) 0.0109(9) 1 0
loop_
_atom_site_aniso_label
_atom_site_aniso_type_symbol
_atom_site_aniso_U_11
_atom_site_aniso_U_22
_atom_site_aniso_U_33
_atom_site_aniso_U_12
_atom_site_aniso_U_13
_atom_site_aniso_U_23
Eu1 Eu3+ 0.00827(14) 0.00717(14) 0.00761(13) -0.00057(12) 0.00419(11)
-0.00039(11)
Eu2 Eu3+ 0.00878(14) 0.00637(14) 0.00819(14) 0.00075(12) 0.00409(11) 0.00021(11)
Ta1 Ta5+ 0.00697(11) 0.00676(12) 0.00720(11) 0.00015(9) 0.00314(9) -0.00002(9)
K1 K1+ 0.0235(8) 0.0154(8) 0.0207(8) 0.0018(7) 0.0125(7) 0.0015(6)
Na1 Na1+ 0.0143(14) 0.0083(12) 0.0118(13) -0.0012(11) 0.0065(11) -0.0002(10)
O1 O2- 0.013(2) 0.007(2) 0.014(2) -0.0022(18) 0.009(2) -0.0005(17)
O2 O2- 0.014(2) 0.006(2) 0.012(2) -0.0007(18) 0.0069(19) 0.0014(17)
O3 O2- 0.012(2) 0.007(2) 0.011(2) -0.0010(18) 0.0067(19) -0.0010(17)
O4 O2- 0.010(2) 0.017(3) 0.014(2) 0.000(2) 0.005(2) 0.0003(19)
O5 O2- 0.011(3) 0.008(3) 0.012(3) 0. 0.006(3) 0.
O6 O2- 0.012(2) 0.006(2) 0.013(2) 0.0032(17) 0.0080(19) 0.0035(17)
O7 O2- 0.013(2) 0.006(2) 0.017(2) 0.0007(18) 0.009(2) -0.0018(19)
#End of TTdata_380310-ICSD