
#(C) 2019 by FIZ Karlsruhe - Leibniz Institute for Information Infrastructure.  All rights reserved.
data_380362-ICSD
_database_code_ICSD 380362
_audit_creation_date 2010-08-01
_chemical_name_systematic 'Tetrasodium uranate'
_chemical_formula_structural 'Na4 (U O5)'
_chemical_formula_sum 'Na4 O5 U1'
_chemical_name_structure_type Na4UO5
_exptl_crystal_density_diffrn 5.2
_cell_measurement_temperature 150.
_publ_section_title
'Crystal growth of K2 U O4 and Na4 U O5 using hydroxide fluxes'
loop_
_citation_id
_citation_journal_full
_citation_year
_citation_journal_volume
_citation_page_first
_citation_page_last
_citation_journal_id_ASTM
primary 'Journal of Crystal Growth' 2010 312 1240 1243 JCRGAE
loop_
_publ_author_name
'Roof, I.P.'
'Smith, M.D.'
'zur Loye, H.C.'
_cell_length_a 7.51720(10)
_cell_length_b 7.51720(10)
_cell_length_c 4.6325(2)
_cell_angle_alpha 90.
_cell_angle_beta 90.
_cell_angle_gamma 90.
_cell_volume 261.77
_cell_formula_units_Z 2
_symmetry_space_group_name_H-M 'I 4/m'
_symmetry_Int_Tables_number 87
_refine_ls_R_factor_all 0.0175
loop_
_symmetry_equiv_pos_site_id
_symmetry_equiv_pos_as_xyz
1 '-y, x, -z'
2 'y, -x, -z'
3 'x, y, -z'
4 '-x, -y, -z'
5 'y, -x, z'
6 '-y, x, z'
7 '-x, -y, z'
8 'x, y, z'
9 '-y+1/2, x+1/2, -z+1/2'
10 'y+1/2, -x+1/2, -z+1/2'
11 'x+1/2, y+1/2, -z+1/2'
12 '-x+1/2, -y+1/2, -z+1/2'
13 'y+1/2, -x+1/2, z+1/2'
14 '-y+1/2, x+1/2, z+1/2'
15 '-x+1/2, -y+1/2, z+1/2'
16 'x+1/2, y+1/2, z+1/2'
loop_
_atom_type_symbol
_atom_type_oxidation_number
U6+ 6
Na1+ 1
O2- -2
loop_
_atom_site_label
_atom_site_type_symbol
_atom_site_symmetry_multiplicity
_atom_site_Wyckoff_symbol
_atom_site_fract_x
_atom_site_fract_y
_atom_site_fract_z
_atom_site_B_iso_or_equiv
_atom_site_occupancy
_atom_site_attached_hydrogens
U1 U6+ 2 a 0. 0. 0. 0.00496(11) 1 0
Na1 Na1+ 8 h 0.1960(2) 0.4043(2) 0. 0.0101(3) 1 0
O1 O2- 2 b 0. 0. 0.5 0.0073(9) 1 0
O2 O2- 8 h 0.2563(4) 0.0777(4) 0. 0.0084(5) 1 0
loop_
_atom_site_aniso_label
_atom_site_aniso_type_symbol
_atom_site_aniso_U_11
_atom_site_aniso_U_22
_atom_site_aniso_U_33
_atom_site_aniso_U_12
_atom_site_aniso_U_13
_atom_site_aniso_U_23
U1 U6+ 0.00533(12) 0.00533(12) 0.00423(13) 0. 0. 0.
Na1 Na1+ 0.0095(7) 0.0131(8) 0.0075(7) -0.0026(6) 0. 0.
O1 O2- 0.0084(14) 0.0084(14) 0.005(2) 0. 0. 0.
O2 O2- 0.0086(12) 0.0092(12) 0.0075(12) -0.0001(9) 0. 0.
#End of TTdata_380362-ICSD