
#(C) 2019 by FIZ Karlsruhe - Leibniz Institute for Information Infrastructure.  All rights reserved.
data_380308-ICSD
_database_code_ICSD 380308
_audit_creation_date 2010-02-01
_chemical_name_systematic 'Europium potassium sodium niobium oxide (4/2/2/2/13)'
_chemical_formula_structural 'Eu4 K2 Na2 Nb2 O13'
_chemical_formula_sum 'Eu4 K2 Na2 Nb2 O13'
_chemical_name_structure_type K2Na2Gd4Nb2O13
_exptl_crystal_density_diffrn 5.47
_cell_measurement_temperature 294.
_publ_section_title

;
Crystal growth, structural properties, and photophysical characterization of
Ln4 Na2 K2 M2 O13 (M = Nb, Ta; Ln = Nd, Sm, Eu, Gd)
;
loop_
_citation_id
_citation_journal_full
_citation_year
_citation_journal_volume
_citation_page_first
_citation_page_last
_citation_journal_id_ASTM
primary 'Inorganic Chemistry' 2009 48 8220 8226 INOCAJ
loop_
_publ_author_name
'Jagau, T.C.'
'Roof, I.P.'
'Smith, M.D.'
'zur Loye, H.C.'
_cell_length_a 24.093(4)
_cell_length_b 5.6581(11)
_cell_length_c 11.198(2)
_cell_angle_alpha 90.
_cell_angle_beta 116.495(3)
_cell_angle_gamma 90.
_cell_volume 1366.19
_cell_formula_units_Z 4
_symmetry_space_group_name_H-M 'C 1 2/c 1'
_symmetry_Int_Tables_number 15
_refine_ls_R_factor_all 0.0426
loop_
_symmetry_equiv_pos_site_id
_symmetry_equiv_pos_as_xyz
1 'x, -y, z+1/2'
2 '-x, -y, -z'
3 '-x, y, -z+1/2'
4 'x, y, z'
5 'x+1/2, -y+1/2, z+1/2'
6 '-x+1/2, -y+1/2, -z'
7 '-x+1/2, y+1/2, -z+1/2'
8 'x+1/2, y+1/2, z'
loop_
_atom_type_symbol
_atom_type_oxidation_number
Eu3+ 3
Nb5+ 5
K1+ 1
Na1+ 1
O2- -2
loop_
_atom_site_label
_atom_site_type_symbol
_atom_site_symmetry_multiplicity
_atom_site_Wyckoff_symbol
_atom_site_fract_x
_atom_site_fract_y
_atom_site_fract_z
_atom_site_B_iso_or_equiv
_atom_site_occupancy
_atom_site_attached_hydrogens
Eu1 Eu3+ 8 f 0.437281(14) 0.04437(5) 0.55096(3) 0.00781(7) 1 0
Eu2 Eu3+ 8 f 0.062579(14) 0.03509(5) 0.17299(3) 0.00829(7) 1 0
Nb1 Nb5+ 8 f 0.34924(3) 0.03411(9) 0.21772(5) 0.00770(10) 1 0
K1 K1+ 8 f 0.25059(8) 0.0531(3) 0.36632(16) 0.0194(3) 1 0
Na1 Na1+ 8 f 0.15846(13) 0.0390(4) 0.0226(3) 0.0103(5) 1 0
O1 O2- 8 f 0.3675(2) 0.2757(8) 0.3584(4) 0.0110(9) 1 0
O2 O2- 8 f 0.3653(2) 0.2242(8) 0.6233(4) 0.0112(8) 1 0
O3 O2- 8 f 0.1305(2) 0.3109(8) 0.1386(4) 0.0099(8) 1 0
O4 O2- 8 f 0.2652(2) 0.0644(8) 0.1240(5) 0.0144(9) 1 0
O5 O2- 4 e 0. 0.2416(12) 0.25 0.0118(12) 1 0
O6 O2- 8 f 0.3994(2) -0.2296(8) 0.6595(4) 0.0115(9) 1 0
O7 O2- 8 f 0.5009(2) 0.2523(8) 0.4764(4) 0.0094(8) 1 0
loop_
_atom_site_aniso_label
_atom_site_aniso_type_symbol
_atom_site_aniso_U_11
_atom_site_aniso_U_22
_atom_site_aniso_U_33
_atom_site_aniso_U_12
_atom_site_aniso_U_13
_atom_site_aniso_U_23
Eu1 Eu3+ 0.00948(14) 0.00813(13) 0.00670(13) -0.00063(11) 0.00442(11)
-0.00025(10)
Eu2 Eu3+ 0.01014(14) 0.00767(13) 0.00764(14) 0.00075(11) 0.00449(11) 0.00012(11)
Nb1 Nb5+ 0.0091(2) 0.0081(2) 0.0066(2) 0.00030(19) 0.00415(18) 0.00018(19)
K1 K1+ 0.0270(8) 0.0157(6) 0.0191(7) 0.0018(6) 0.0135(6) 0.0025(6)
Na1 Na1+ 0.0166(13) 0.0060(11) 0.0098(11) -0.0005(10) 0.0073(10) -0.0004(9)
O1 O2- 0.014(2) 0.009(2) 0.011(2) -0.0018(17) 0.0067(19) -0.0014(16)
O2 O2- 0.014(2) 0.009(2) 0.011(2) 0.0017(17) 0.0054(18) 0.0017(16)
O3 O2- 0.012(2) 0.011(2) 0.009(2) 0.0002(17) 0.0069(18) -0.0010(16)
O4 O2- 0.011(2) 0.017(2) 0.013(2) 0.0019(17) 0.0028(18) 0.0024(18)
O5 O2- 0.015(3) 0.016(3) 0.007(3) 0. 0.007(3) 0.
O6 O2- 0.018(2) 0.009(2) 0.008(2) 0.0002(17) 0.0063(19) 0.0015(16)
O7 O2- 0.010(2) 0.0087(19) 0.010(2) -0.0014(15) 0.0044(18) 0.0009(16)
#End of TTdata_380308-ICSD