
#(C) 2019 by FIZ Karlsruhe - Leibniz Institute for Information Infrastructure.  All rights reserved.
data_380420-ICSD
_database_code_ICSD 380420
_audit_creation_date 2016-02-01
_chemical_name_systematic 'Sodium-0.14 potassium-0.86 trioxoniobate'
_chemical_formula_structural '(Na0.14 K0.86) (Nb O3)'
_chemical_formula_sum 'K0.86 Na0.14 Nb1 O3'
_exptl_crystal_density_diffrn 4.57
_cell_measurement_temperature 300.
_publ_section_title
'Hydrothermal synthesis of sodium potassium niobate solid solutions at 200 C'
loop_
_citation_id
_citation_journal_full
_citation_year
_citation_journal_volume
_citation_page_first
_citation_page_last
_citation_journal_id_ASTM
primary 'Green Chemistry' 2010 12 680 687 GRCHFJ
loop_
_publ_author_name
'Handoko, Albertus D.'
'Goh, Gregory K.L.'
_cell_length_a 3.977443(91)
_cell_length_b 5.68725(17)
_cell_length_c 5.70678(16)
_cell_angle_alpha 90
_cell_angle_beta 90
_cell_angle_gamma 90
_cell_volume 129.08
_cell_formula_units_Z 2
_symmetry_space_group_name_H-M 'A m m 2'
_symmetry_Int_Tables_number 38
_refine_ls_R_factor_all 0.0167
loop_
_symmetry_equiv_pos_site_id
_symmetry_equiv_pos_as_xyz
1 'x, -y, z'
2 '-x, y, z'
3 '-x, -y, z'
4 'x, y, z'
5 'x, -y+1/2, z+1/2'
6 '-x, y+1/2, z+1/2'
7 '-x, -y+1/2, z+1/2'
8 'x, y+1/2, z+1/2'
loop_
_atom_type_symbol
_atom_type_oxidation_number
Nb5+ 5
K1+ 1
Na1+ 1
O2- -2
loop_
_atom_site_label
_atom_site_type_symbol
_atom_site_symmetry_multiplicity
_atom_site_Wyckoff_symbol
_atom_site_fract_x
_atom_site_fract_y
_atom_site_fract_z
_atom_site_B_iso_or_equiv
_atom_site_occupancy
_atom_site_attached_hydrogens
Nb1 Nb5+ 4 c 0.02569(98) 0 0 0.900(44) 0.5 0
K1 K1+ 2 b 0.5 0 0.5166(13) 0.976(98) 0.8578(78) 0
Na1 Na1+ 2 b 0.5 0 0.4923(18) 0.976(98) 0.1422(78) 0
O1 O2- 2 b 0.5 0 0.0463(22) 0.59(18) 0.962(11) 0
O2 O2- 4 d 0 0.2269(36) 0.2693(23) 0.59(18) 0.9220(71) 0
#End of TTdata_380420-ICSD