
#(C) 2019 by FIZ Karlsruhe - Leibniz Institute for Information Infrastructure.  All rights reserved.
data_380429-ICSD
_database_code_ICSD 380429
_audit_creation_date 2016-02-01
_chemical_name_systematic 'Sodium-0.29 potassium-0.71 trioxoniobate'
_chemical_formula_structural '(Na0.29 K0.71) (Nb O3)'
_chemical_formula_sum 'K0.71 Na0.29 Nb1 O3'
_exptl_crystal_density_diffrn 4.56
_cell_measurement_temperature 300.
_publ_section_title
'Hydrothermal synthesis of sodium potassium niobate solid solutions at 200 C'
loop_
_citation_id
_citation_journal_full
_citation_year
_citation_journal_volume
_citation_page_first
_citation_page_last
_citation_journal_id_ASTM
primary 'Green Chemistry' 2010 12 680 687 GRCHFJ
loop_
_publ_author_name
'Handoko, Albertus D.'
'Goh, Gregory K.L.'
_cell_length_a 3.97024(26)
_cell_length_b 5.66200(55)
_cell_length_c 5.68624(56)
_cell_angle_alpha 90
_cell_angle_beta 90
_cell_angle_gamma 90
_cell_volume 127.82
_cell_formula_units_Z 2
_symmetry_space_group_name_H-M 'A m m 2'
_symmetry_Int_Tables_number 38
_refine_ls_R_factor_all 0.0158
loop_
_symmetry_equiv_pos_site_id
_symmetry_equiv_pos_as_xyz
1 'x, -y, z'
2 '-x, y, z'
3 '-x, -y, z'
4 'x, y, z'
5 'x, -y+1/2, z+1/2'
6 '-x, y+1/2, z+1/2'
7 '-x, -y+1/2, z+1/2'
8 'x, y+1/2, z+1/2'
loop_
_atom_type_symbol
_atom_type_oxidation_number
Nb5+ 5
K1+ 1
Na1+ 1
O2- -2
loop_
_atom_site_label
_atom_site_type_symbol
_atom_site_symmetry_multiplicity
_atom_site_Wyckoff_symbol
_atom_site_fract_x
_atom_site_fract_y
_atom_site_fract_z
_atom_site_B_iso_or_equiv
_atom_site_occupancy
_atom_site_attached_hydrogens
Nb1 Nb5+ 4 c 0.002(19) 0 0 0.936(65) 0.5 0
K1 K1+ 2 b 0.5 0 0.4960(70) 1.07(12) 0.713(16) 0
Na1 Na1+ 2 b 0.5 0 0.4955(64) 1.07(12) 0.287(16) 0
O1 O2- 2 b 0.5 0 0.0765(38) 0.64(35) 1 0
O2 O2- 4 d 0 0.2793(75) 0.2821(75) 0.64(35) 1 0
#End of TTdata_380429-ICSD