
#(C) 2019 by FIZ Karlsruhe - Leibniz Institute for Information Infrastructure.  All rights reserved.
data_38367-ICSD
_database_code_ICSD 38367
_audit_creation_date 1984-12-31
_audit_update_record 2007-08-01
_chemical_name_systematic 'Sodium iron(III) diphosphate(V) - HT'
_chemical_formula_structural 'Na Fe (P2 O7)'
_chemical_formula_sum 'Fe1 Na1 O7 P2'
_chemical_name_structure_type Mg2P2O7
_exptl_crystal_density_diffrn 3.3
_publ_section_title

;
Etudes cristallographique magnetique et par resonance Moessbauer de la variete
de haute temperature du pyrophosphate Na Fe P2 O7
;
loop_
_citation_id
_citation_journal_full
_citation_year
_citation_journal_volume
_citation_page_first
_citation_page_last
_citation_journal_id_ASTM
primary 'Journal of Solid State Chemistry' 1984 53 387 397 JSSCBI
loop_
_publ_author_name
'Moya-Pizarro, T.'
'Salmon, R.'
'Fournes, L.'
'le Flem, G.'
'Wanklyn, B.'
'Hagenmuller, P.'
_cell_length_a 7.298(2)
_cell_length_b 7.874(2)
_cell_length_c 9.536(3)
_cell_angle_alpha 90.
_cell_angle_beta 111.85(2)
_cell_angle_gamma 90.
_cell_volume 508.61
_cell_formula_units_Z 4
_symmetry_space_group_name_H-M 'P 1 21/c 1'
_symmetry_Int_Tables_number 14
_refine_ls_R_factor_all 0.044
loop_
_symmetry_equiv_pos_site_id
_symmetry_equiv_pos_as_xyz
1 'x, -y+1/2, z+1/2'
2 '-x, -y, -z'
3 '-x, y+1/2, -z+1/2'
4 'x, y, z'
loop_
_atom_type_symbol
_atom_type_oxidation_number
Na1+ 1
Fe3+ 3
P5+ 5
O2- -2
loop_
_atom_site_label
_atom_site_type_symbol
_atom_site_symmetry_multiplicity
_atom_site_Wyckoff_symbol
_atom_site_fract_x
_atom_site_fract_y
_atom_site_fract_z
_atom_site_B_iso_or_equiv
_atom_site_occupancy
_atom_site_attached_hydrogens
Na1 Na1+ 4 e 0.2884(4) 0.4775(4) 0.2944(3) . 1. 0
Fe1 Fe3+ 4 e 0.2596(1) 0.0089(1) 0.2493(1) . 1. 0
P1 P5+ 4 e 0.0733(2) 0.2541(2) 0.4556(1) . 1. 0
P2 P5+ 4 e 0.673(2) 0.2113(2) 0.4547(1) . 1. 0
O1 O2- 4 e 0.8779(5) 0.1538(5) 0.4417(4) . 1. 0
O2 O2- 4 e 0.1887(5) 0.2843(5) 0.6199(4) . 1. 0
O3 O2- 4 e 0.0109(5) 0.4154(5) 0.3630(4) . 1. 0
O4 O2- 4 e 0.1818(5) 0.1353(5) 0.3911(4) . 1. 0
O5 O2- 4 e 0.5322(5) 0.0861(5) 0.3497(4) . 1. 0
O6 O2- 4 e 0.6922(5) 0.2011(5) 0.6168(4) . 1. 0
O7 O2- 4 e 0.6360(5) 0.3935(5) 0.3978(4) . 1. 0
loop_
_atom_site_aniso_label
_atom_site_aniso_type_symbol
_atom_site_aniso_U_11
_atom_site_aniso_U_22
_atom_site_aniso_U_33
_atom_site_aniso_U_12
_atom_site_aniso_U_13
_atom_site_aniso_U_23
Na1 Na1+ 0.0154(10) 0.0227(15) 0.0236(12) 0.0017(10) 0.0114(9) 0.0099(10)
Fe1 Fe3+ 0.0032(2) 0.0039(3) 0.0052(2) 0.0000(2) 0.0023(2) -0.0003(2)
P1 P5+ 0.0030(4) 0.0037(6) 0.0049(4) -0.0003(4) 0.0021(3) -0.0003(4)
P2 P5+ 0.0030(4) 0.0039(6) 0.0052(4) -0.0001(4) 0.0020(3) 0.0005(4)
O1 O2- 0.0033(12) 0.0057(18) 0.0135(15) -0.0006(11) 0.0041(11) 0.0010(12)
O2 O2- 0.0123(15) 0.0060(19) 0.0073(14) 0.0009(12) 0.0017(11) -0.0016(12)
O3 O2- 0.0062(13) 0.0072(18) 0.0093(14) -0.0001(11) 0.0037(11) 0.0022(12)
O4 O2- 0.0112(14) 0.0096(19) 0.0103(14) 0.0031(13) 0.0084(12) 0.0001(13)
O5 O2- 0.0046(12) 0.0083(18) 0.0116(15) -0.0028(12) 0.0027(11) -0.0044(13)
O6 O2- 0.0120(14) 0.0060(18) 0.0069(13) -0.0001(12) 0.0048(11) 0.0011(12)
O7 O2- 0.0080(13) 0.0066(18) 0.0093(14) 0.0025(12) 0.0057(11) 0.0030(12)
#End of TTdata_38367-ICSD