
#(C) 2019 by FIZ Karlsruhe - Leibniz Institute for Information Infrastructure.  All rights reserved.
data_389-ICSD
_database_code_ICSD 389
_audit_creation_date 1980-01-01
_audit_update_record 2012-08-01
_chemical_name_systematic 'Sodium tetrafluorotitanate(III) - alpha'
_chemical_formula_structural 'Na (Ti F4)'
_chemical_formula_sum 'F4 Na1 Ti1'
_exptl_crystal_density_diffrn 3.08
_publ_section_title 'Structure cristalline de alpha-Na Ti F4'
loop_
_citation_id
_citation_journal_full
_citation_year
_citation_journal_volume
_citation_page_first
_citation_page_last
_citation_journal_id_ASTM
primary

;
Acta Crystallographica, Section B: Structural Crystallography and Crystal
Chemistry
; 1976 32 2106 2110 ACBCAR
loop_
_publ_author_name
'Omaly, J.'
'Batail, P.'
'Grandjean, D.'
'Avignant, D.'
'Cousseins, J.C.'
_cell_length_a 4.976(3)
_cell_length_b 5.755(9)
_cell_length_c 11.070(5)
_cell_angle_alpha 90.
_cell_angle_beta 90.
_cell_angle_gamma 90.
_cell_volume 317.01
_cell_formula_units_Z 4
_symmetry_space_group_name_H-M 'P b c n'
_symmetry_Int_Tables_number 60
_refine_ls_R_factor_all 0.03
loop_
_symmetry_equiv_pos_site_id
_symmetry_equiv_pos_as_xyz
1 'x, -y, z+1/2'
2 '-x+1/2, y+1/2, z'
3 'x+1/2, y+1/2, -z+1/2'
4 '-x, -y, -z'
5 '-x, y, -z+1/2'
6 'x+1/2, -y+1/2, -z'
7 '-x+1/2, -y+1/2, z+1/2'
8 'x, y, z'
loop_
_atom_type_symbol
_atom_type_oxidation_number
Ti3+ 3
Na1+ 1
F1- -1
loop_
_atom_site_label
_atom_site_type_symbol
_atom_site_symmetry_multiplicity
_atom_site_Wyckoff_symbol
_atom_site_fract_x
_atom_site_fract_y
_atom_site_fract_z
_atom_site_B_iso_or_equiv
_atom_site_occupancy
_atom_site_attached_hydrogens
Ti1 Ti3+ 4 c 0 -.15577(8) 0.25 . 1. 0
Na1 Na1+ 4 b 0 0.5 0 . 1. 0
F1 F1- 8 d 0.74670(28) 0.08649(24) 0.18836(12) . 1. 0
F2 F1- 8 d 0.83367(27) 0.82239(23) 0.40177(12) . 1. 0
loop_
_atom_site_aniso_label
_atom_site_aniso_type_symbol
_atom_site_aniso_beta_11
_atom_site_aniso_beta_22
_atom_site_aniso_beta_33
_atom_site_aniso_beta_12
_atom_site_aniso_beta_13
_atom_site_aniso_beta_23
Ti1 Ti3+ 0.00630(18) 0.00532(13) 0.00158(4) 0 0.00048(6) 0
Na1 Na1+ 0.01539(51) 0.01109(39) 0.00305(10) 0.00485(23) -.00343(20) -.00234(16)
F1 F1- 0.00949(43) 0.00815(34) 0.00245(9) 0.00475(34) -.00048(19) -.00033(15)
F2 F1- 0.01116(46) 0.00834(34) 0.00193(9) 0.00199(35) 0.00207(18) 0.00051(15)
#End of TTdata_389-ICSD