
#(C) 2019 by FIZ Karlsruhe - Leibniz Institute for Information Infrastructure.  All rights reserved.
data_39004-ICSD
_database_code_ICSD 39004
_audit_creation_date 1985-09-24
_audit_update_record 1998-06-26
_chemical_name_systematic 'Sodium calcium silicate *'
_chemical_formula_structural 'Na2 Ca3 Si6 O16'
_chemical_formula_sum 'Ca3 Na2 O16 Si6'
_chemical_name_mineral Devitrite
_exptl_crystal_density_diffrn 2.81
_publ_section_title

;
The crystal structure of devitrite (disodium tricalcium hexasilicate), Na2 Ca3
Si6 O16
;
loop_
_citation_id
_citation_journal_full
_citation_year
_citation_journal_volume
_citation_page_first
_citation_page_last
_citation_journal_id_ASTM
primary 'Yogyo Kyokaishi' 1984 92 373 378 YGKSA4
loop_
_publ_author_name
'Ihara, M.'
'Odani, K.'
'Yoshida, N.'
'Fukunaga, J.'
'Setoguchi, M.'
'Higashi, T.'
_cell_length_a 10.123(10)
_cell_length_b 10.569(9)
_cell_length_c 7.117(5)
_cell_angle_alpha 109.71(7)
_cell_angle_beta 98.24(8)
_cell_angle_gamma 78.15(6)
_cell_volume 699.29
_cell_formula_units_Z 2
_symmetry_space_group_name_H-M 'P -1'
_symmetry_Int_Tables_number 2
_refine_ls_R_factor_all 0.092
loop_
_symmetry_equiv_pos_site_id
_symmetry_equiv_pos_as_xyz
1 '-x, -y, -z'
2 'x, y, z'
loop_
_atom_type_symbol
_atom_type_oxidation_number
Ca2+ 2
Na1+ 1
Si4+ 4
O2- -2
loop_
_atom_site_label
_atom_site_type_symbol
_atom_site_symmetry_multiplicity
_atom_site_Wyckoff_symbol
_atom_site_fract_x
_atom_site_fract_y
_atom_site_fract_z
_atom_site_B_iso_or_equiv
_atom_site_occupancy
_atom_site_attached_hydrogens
Ca1 Ca2+ 2 i 0.1529(3) 0.5135(3) 0.4190(4) . 1. 0
Ca2 Ca2+ 2 i 0.1339(3) 0.8879(3) 0.3513(4) . 1. 0
Ca3 Ca2+ 2 i 0.1241(3) 0.8793(3) 0.8447(4) . 1. 0
Na1 Na1+ 2 i 0.1346(6) 0.5201(6) 0.9170(9) . 1. 0
Na2 Na1+ 2 i 0.4194(7) 0.1736(7) 0.8218(12) . 1. 0
Si1 Si4+ 2 i 0.1273(4) 0.2314(4) 0.5506(6) . 1. 0
Si2 Si4+ 2 i 0.1330(4) 0.2312(4) 0.9815(6) . 1. 0
Si3 Si4+ 2 i 0.3140(4) 0.0751(4) 0.2272(6) . 1. 0
Si4 Si4+ 2 i 0.4018(4) 0.6270(4) 0.8145(6) . 1. 0
Si5 Si4+ 2 i 0.3996(4) 0.6390(4) 0.2538(6) . 1. 0
Si6 Si4+ 2 i 0.4156(4) 0.8503(4) 0.6482(6) . 1. 0
O1 O2- 2 i 0.0217(10) 0.128(1) 0.4518(14) . 1. 0
O2 O2- 2 i 0.2663(10) 0.1757(12) 0.4418(14) . 1. 0
O3 O2- 2 i 0.1821(10) 0.2376(11) 0.7775(14) . 1. 0
O4 O2- 2 i 0.0658(12) 0.3822(12) 0.5554(16) . 1. 0
O5 O2- 2 i 0.02331(10) 0.1304(11) 0.9327(15) . 1. 0
O6 O2- 2 i 0.2764(10) 0.1655(11) 0.0770(16) . 1. 0
O7 O2- 2 i 0.0870(11) 0.3820(11) 0.1100(15) . 1. 0
O8 O2- 2 i 0.2505(9) 0.9408(10) 0.1463(14) . 1. 0
O9 O2- 2 i 0.4788(10) 0.0418(10) 0.2601(14) . 1. 0
O10 O2- 2 i 0.4966(13) 0.5089(13) 0.2928(17) . 1. 0
O11 O2- 2 i 0.2471(11) 0.6304(12) 0.7458(16) . 1. 0
O12 O2- 2 i 0.4398(11) 0.6509(11) 0.0506(14) . 1. 0
O13 O2- 2 i 0.4585(11) 0.7478(11) 0.7784(16) . 1. 0
O14 O2- 2 i 0.452(1) 0.7698(11) 0.4203(15) . 1. 0
O15 O2- 2 i 0.2635(10) 0.9206(11) 0.6565(16) . 1. 0
O16 O2- 2 i 0.2429(11) 0.6404(11) 0.2587(16) . 1. 0
loop_
_atom_site_aniso_label
_atom_site_aniso_type_symbol
_atom_site_aniso_beta_11
_atom_site_aniso_beta_22
_atom_site_aniso_beta_33
_atom_site_aniso_beta_12
_atom_site_aniso_beta_13
_atom_site_aniso_beta_23
Ca1 Ca2+ 0.0031(3) 0.0040(3) 0.0044(6) -.0025(2) -.0014(3) 0.0020(3)
Ca2 Ca2+ 0.0026(3) 0.0033(3) 0.0040(6) -.0017(2) -.0007(3) 0.0018(3)
Ca3 Ca2+ 0.0026(3) 0.0041(3) 0.0045(6) -.0020(2) -.0011(3) 0.0021(3)
Na1 Na1+ 0.0035(6) 0.0044(7) 0.0065(12) -.0020(5) -.0004(7) 0.0024(7)
Na2 Na1+ 0.0044(7) 0.0043(7) 0.0205(19) -.0015(6) 0.0023(9) 0.0031(9)
Si1 Si4+ 0.0018(3) 0.0030(4) 0.0035(7) -.0017(3) -.0011(4) 0.0016(4)
Si2 Si4+ 0.0026(4) 0.0030(4) 0.0029(7) -.0019(3) -.0010(4) 0.0012(4)
Si3 Si4+ 0.0023(4) 0.0030(4) 0.0028(7) -.0018(3) -.0010(4) 0.0011(4)
Si4 Si4+ 0.0033(4) 0.0029(4) 0.0030(7) -.0023(3) -.0010(4) 0.0015(4)
Si5 Si4+ 0.0029(4) 0.0030(4) 0.0034(7) -.0018(3) -.0008(4) 0.0013(4)
Si6 Si4+ 0.0020(3) 0.0026(4) 0.0033(7) -.0018(3) -.0012(4) 0.0013(4)
O1 O2- 0.0032(10) 0.0035(10) 0.0027(19) -.0023(8) -.0002(11) 0.0012(11)
O2 O2- 0.0031(10) 0.0060(13) 0.002(2) -.0019(9) -.0002(12) 0.0011(12)
O3 O2- 0.0035(10) 0.0051(12) 0.0020(19) -.0031(9) -.0010(11) 0.0017(12)
O4 O2- 0.0058(12) 0.0048(12) 0.0066(23) -.0008(10) 0.0009(13) 0.0043(14)
O5 O2- 0.0029(10) 0.0050(11) 0.0065(22) -.0030(9) -.0010(12) 0.0038(13)
O6 O2- 0.0031(10) 0.0043(11) 0.0076(23) -.0015(9) -.0022(12) 0.0042(13)
O7 O2- 0.0036(11) 0.0038(11) 0.0065(22) -.0018(9) -.0010(12) 0.0014(13)
O8 O2- 0.0015(9) 0.0042(11) 0.0050(21) -.0023(8) -.0007(11) 0.0019(12)
O9 O2- 0.0027(10) 0.0024(10) 0.0038(20) -.0019(8) -.0009(11) 0.0003(11)
O10 O2- 0.0069(13) 0.0067(14) 0.0092(26) -.0010(11) -.0002(15) 0.0066(16)
O11 O2- 0.0039(11) 0.0070(14) 0.0076(23) -.0037(10) -.0021(13) 0.0044(15)
O12 O2- 0.0051(11) 0.0035(11) 0.0022(19) -.0021(9) -.0001(12) 0.0012(12)
O13 O2- 0.0044(11) 0.0046(12) 0.0102(25) -.0031(9) -.0021(13) 0.0053(14)
O14 O2- 0.0035(10) 0.0048(12) 0.0055(21) -.0026(9) -.0005(12) 0.0023(13)
O15 O2- 0.0032(10) 0.0052(12) 0.0074(23) -.0016(9) 0.0012(13) 0.0031(14)
O16 O2- 0.0036(11) 0.0051(12) 0.0075(23) -.0033(9) -.0008(12) 0.0031(13)
#End of TTdata_39004-ICSD