
#(C) 2019 by FIZ Karlsruhe - Leibniz Institute for Information Infrastructure.  All rights reserved.
data_391347-ICSD
_database_code_ICSD 391347
_audit_creation_date 2007-04-01
_chemical_name_systematic 'Sodium trimagnesium aluminium pentamolybdate'
_chemical_formula_structural 'Na Mg3 Al Mo5 O20'
_chemical_formula_sum 'Al1 Mg3 Mo5 Na1 O20'
_chemical_name_structure_type NaMg3AlMo5O20
_exptl_crystal_density_diffrn 3.73
_cell_measurement_temperature 105.
_publ_section_title

;
Crystal structure, vibrational properties and luminescence of Na Mg3 Al(Mo
O4)5 crystals doped with Cr(3+) ions
;
loop_
_citation_id
_citation_journal_full
_citation_year
_citation_journal_volume
_citation_page_first
_citation_page_last
_citation_journal_id_ASTM
primary 'Journal of Solid State Chemistry' 2006 179 685 695 JSSCBI
loop_
_publ_author_name
'Hermanowicz, K.'
'Maczka, M.'
'Wolcyrz, M.'
'Tomaszewski, P.E.'
_cell_length_a 6.8742(8)
_cell_length_b 6.9305(7)
_cell_length_c 17.5753(19)
_cell_angle_alpha 87.902(8)
_cell_angle_beta 87.648(9)
_cell_angle_gamma 78.942(15)
_cell_volume 820.73
_cell_formula_units_Z 2
_symmetry_space_group_name_H-M 'P -1'
_symmetry_Int_Tables_number 2
_refine_ls_R_factor_all 0.0303
loop_
_symmetry_equiv_pos_site_id
_symmetry_equiv_pos_as_xyz
1 '-x, -y, -z'
2 'x, y, z'
loop_
_atom_type_symbol
_atom_type_oxidation_number
Mo6+ 6
Mg2+ 2
Al3+ 3
Na1+ 1
O2- -2
loop_
_atom_site_label
_atom_site_type_symbol
_atom_site_symmetry_multiplicity
_atom_site_Wyckoff_symbol
_atom_site_fract_x
_atom_site_fract_y
_atom_site_fract_z
_atom_site_B_iso_or_equiv
_atom_site_occupancy
_atom_site_attached_hydrogens
Mo1 Mo6+ 2 i 0.27257(4) 0.06041(4) 0.904285(15) 0.00506(6) 1 0
Mo2 Mo6+ 2 i -0.21496(4) 0.17547(4) 0.715434(15) 0.00602(6) 1 0
Mo3 Mo6+ 2 i -0.72996(4) 0.30873(4) 0.527808(16) 0.00636(6) 1 0
Mo4 Mo6+ 2 i -0.24664(4) 0.45373(4) 0.913963(16) 0.00673(7) 1 0
Mo5 Mo6+ 2 i -0.67989(4) -0.22018(4) 0.691804(17) 0.00812(7) 1 0
Mg1 Mg2+ 2 i -0.18406(15) 0.17098(16) 0.50704(6) 0.00454(19) 1 0
Mg2 Mg2+ 2 i -0.77897(15) 0.57469(16) 0.87353(6) 0.00442(19) 1 0
Mg3 Mg2+ 2 i -0.16777(16) 0.91679(16) 0.88449(6) 0.00538(19) 1 0
Al1 Al3+ 2 i -0.75161(15) 0.30441(15) 0.73578(6) 0.00822(18) 1 0
Na1 Na1+ 2 i -0.1099(3) -0.3350(3) 0.68966(18) 0.0454(7) 1 0
O1 O2- 2 i 0.1443(3) -0.1297(3) 0.88108(14) 0.0081(4) 1 0
O2 O2- 2 i -0.4814(4) 0.2104(4) 0.50644(16) 0.0129(5) 1 0
O3 O2- 2 i -0.7560(4) 0.3510(4) 0.62595(16) 0.0156(5) 1 0
O4 O2- 2 i -0.8191(4) -0.1997(4) 0.60932(16) 0.0130(5) 1 0
O5 O2- 2 i -0.1925(4) 0.1208(4) 0.61983(15) 0.0120(5) 1 0
O6 O2- 2 i -0.4801(4) 0.5399(4) 0.87633(16) 0.0134(5) 1 0
O7 O2- 2 i -0.2489(4) 0.4669(4) 1.01262(15) 0.0137(5) 1 0
O8 O2- 2 i -0.8771(4) 0.1326(4) 0.50321(14) 0.0098(4) 1 0
O9 O2- 2 i -0.7999(4) 0.5347(4) 0.47824(15) 0.0115(4) 1 0
O10 O2- 2 i -0.4618(4) 0.2865(4) 0.73661(16) 0.0131(5) 1 0
O11 O2- 2 i -0.0490(4) 0.3377(4) 0.73300(14) 0.0112(4) 1 0
O12 O2- 2 i -0.7746(4) -0.4010(4) 0.75419(15) 0.0113(4) 1 0
O13 O2- 2 i -0.7127(4) 0.0139(4) 0.73298(16) 0.0152(5) 1 0
O14 O2- 2 i 0.2317(3) 0.2889(3) 0.84830(14) 0.0088(4) 1 0
O15 O2- 2 i 0.2055(4) 0.1158(4) 0.99803(14) 0.0105(4) 1 0
O16 O2- 2 i -0.1568(4) -0.0520(4) 0.76718(15) 0.0099(4) 1 0
O17 O2- 2 i 0.5248(3) -0.0371(4) 0.89501(15) 0.0100(4) 1 0
O18 O2- 2 i -0.0870(3) 0.6135(3) 0.87524(14) 0.0092(4) 1 0
O19 O2- 2 i -0.1615(4) 0.2062(4) 0.89042(16) 0.0138(5) 1 0
O20 O2- 2 i -0.4331(4) -0.2976(4) 0.66764(17) 0.0162(5) 1 0
loop_
_atom_site_aniso_label
_atom_site_aniso_type_symbol
_atom_site_aniso_U_11
_atom_site_aniso_U_22
_atom_site_aniso_U_33
_atom_site_aniso_U_12
_atom_site_aniso_U_13
_atom_site_aniso_U_23
Mo1 Mo6+ 0.00545(10) 0.00404(11) 0.00608(13) -0.00192(8) -0.00050(8) 0.00053(9)
Mo2 Mo6+ 0.00705(11) 0.00506(11) 0.00598(12) -0.00132(9) 0.00005(8) 0.00019(9)
Mo3 Mo6+ 0.00683(11) 0.00561(11) 0.00728(13) -0.00290(8) 0.00012(8) 0.00004(9)
Mo4 Mo6+ 0.00787(11) 0.00532(11) 0.00760(13) -0.00336(9) 0.00263(9) -0.00036(9)
Mo5 Mo6+ 0.00691(11) 0.00795(12) 0.00995(13) -0.00324(9) 0.00074(9) 0.00235(10)
Mg1 Mg2+ 0.0038(4) 0.0045(4) 0.0055(5) -0.0011(3) -0.0003(3) 0.0001(4)
Mg2 Mg2+ 0.0042(4) 0.0039(4) 0.0055(5) -0.0013(3) -0.0001(3) -0.0003(4)
Mg3 Mg2+ 0.0045(4) 0.0048(4) 0.0068(5) -0.0010(4) 0.0000(3) 0.0005(4)
Al1 Al3+ 0.0087(4) 0.0084(4) 0.0079(4) -0.0026(3) 0.0000(3) 0.0001(4)
Na1 Na1+ 0.0145(8) 0.0124(7) 0.111(2) -0.0017(6) -0.0221(11) -0.0014(10)
O1 O2- 0.0083(9) 0.0084(10) 0.0086(10) -0.0041(8) -0.0006(8) 0.0003(9)
O2 O2- 0.0088(10) 0.0102(10) 0.0201(13) -0.0027(8) 0.0003(9) -0.0015(10)
O3 O2- 0.0234(13) 0.0139(11) 0.0120(12) -0.0102(10) 0.0014(10) -0.0014(10)
O4 O2- 0.0129(10) 0.0101(10) 0.0160(12) -0.0022(9) -0.0036(9) 0.0016(10)
O5 O2- 0.0148(11) 0.0126(11) 0.0091(11) -0.0041(9) -0.0014(9) 0.0004(9)
O6 O2- 0.0134(11) 0.0145(11) 0.0137(12) -0.0066(9) 0.0013(9) -0.0016(10)
O7 O2- 0.0177(11) 0.0126(11) 0.0114(12) -0.0054(9) 0.0027(9) 0.0002(10)
O8 O2- 0.0096(10) 0.0108(10) 0.0101(11) -0.0045(8) -0.0013(8) -0.0008(9)
O9 O2- 0.0106(10) 0.0101(10) 0.0140(12) -0.0036(9) 0.0003(9) 0.0030(9)
O10 O2- 0.0141(11) 0.0092(10) 0.0142(12) 0.0016(9) 0.0026(9) -0.0002(9)
O11 O2- 0.0177(11) 0.0085(10) 0.0084(11) -0.0048(9) -0.0028(9) 0.0021(9)
O12 O2- 0.0092(10) 0.0115(10) 0.0122(12) -0.0008(8) 0.0022(8) 0.0025(9)
O13 O2- 0.0164(11) 0.0159(12) 0.0151(13) -0.0085(10) 0.0018(9) 0.0004(10)
O14 O2- 0.0072(9) 0.0073(9) 0.0117(11) -0.0012(8) -0.0006(8) 0.0005(9)
O15 O2- 0.0142(10) 0.0100(10) 0.0077(11) -0.0038(9) -0.0006(8) -0.0002(9)
O16 O2- 0.0117(10) 0.0077(10) 0.0108(11) -0.0028(8) -0.0028(8) 0.0024(9)
O17 O2- 0.0079(9) 0.0086(10) 0.0138(12) -0.0027(8) -0.0014(8) 0.0022(9)
O18 O2- 0.0099(9) 0.0079(10) 0.0107(11) -0.0045(8) 0.0042(8) -0.0012(9)
O19 O2- 0.0181(12) 0.0079(10) 0.0162(13) -0.0055(9) 0.0058(9) -0.0026(10)
O20 O2- 0.0086(10) 0.0212(13) 0.0185(13) -0.0040(9) 0.0012(9) 0.0057(11)
#End of TTdata_391347-ICSD