
#(C) 2019 by FIZ Karlsruhe - Leibniz Institute for Information Infrastructure.  All rights reserved.
data_391348-ICSD
_database_code_ICSD 391348
_audit_creation_date 2007-04-01
_audit_update_record 2013-08-01
_chemical_name_systematic 'Sodium trimagnesium aluminium pentamolybdate'
_chemical_formula_structural 'Na Mg3 Al Mo5 O20'
_chemical_formula_sum 'Al1 Mg3 Mo5 Na1 O20'
_chemical_name_structure_type NaMg3AlMo5O20
_exptl_crystal_density_diffrn 3.73
_publ_section_title

;
Crystal structure, vibrational properties and luminescence of Na Mg3 Al(Mo
O4)5 crystals doped with Cr(3+) ions
;
loop_
_citation_id
_citation_journal_full
_citation_year
_citation_journal_volume
_citation_page_first
_citation_page_last
_citation_journal_id_ASTM
primary 'Journal of Solid State Chemistry' 2006 179 685 695 JSSCBI
loop_
_publ_author_name
'Hermanowicz, K.'
'Maczka, M.'
'Wolcyrz, M.'
'Tomaszewski, P.E.'
_cell_length_a 6.8744(8)
_cell_length_b 6.9342(7)
_cell_length_c 17.6045(19)
_cell_angle_alpha 87.788(8)
_cell_angle_beta 87.727(9)
_cell_angle_gamma 78.501(9)
_cell_volume 821.28
_cell_formula_units_Z 2
_symmetry_space_group_name_H-M 'P -1'
_symmetry_Int_Tables_number 2
_refine_ls_R_factor_all 0.0262
loop_
_symmetry_equiv_pos_site_id
_symmetry_equiv_pos_as_xyz
1 '-x, -y, -z'
2 'x, y, z'
loop_
_atom_type_symbol
_atom_type_oxidation_number
Mo6+ 6
Mg2+ 2
Al3+ 3
Na1+ 1
O2- -2
loop_
_atom_site_label
_atom_site_type_symbol
_atom_site_symmetry_multiplicity
_atom_site_Wyckoff_symbol
_atom_site_fract_x
_atom_site_fract_y
_atom_site_fract_z
_atom_site_B_iso_or_equiv
_atom_site_occupancy
_atom_site_attached_hydrogens
Mo1 Mo6+ 2 i 0.27297(3) 0.06050(3) 0.904129(14) 0.00781(6) 1 0
Mo2 Mo6+ 2 i -0.21571(3) 0.17607(3) 0.715351(14) 0.00885(6) 1 0
Mo3 Mo6+ 2 i -0.73073(4) 0.30897(4) 0.528082(15) 0.00911(6) 1 0
Mo4 Mo6+ 2 i -0.24640(4) 0.45355(4) 0.914288(15) 0.00959(6) 1 0
Mo5 Mo6+ 2 i -0.68017(4) -0.21890(4) 0.691718(16) 0.01147(6) 1 0
Mg1 Mg2+ 2 i -0.18491(14) 0.17075(14) 0.50758(6) 0.00736(17) 1 0
Mg2 Mg2+ 2 i -0.77856(14) 0.57482(14) 0.87344(6) 0.00701(17) 1 0
Mg3 Mg2+ 2 i -0.16800(14) 0.91716(15) 0.88490(6) 0.00835(18) 1 0
Al1 Al3+ 2 i -0.75250(14) 0.30527(14) 0.73547(6) 0.01067(16) 1 0
Na1 Na1+ 2 i -0.1117(3) -0.3343(3) 0.6901(2) 0.0802(12) 1 0
O1 O2- 2 i 0.1449(3) -0.1296(3) 0.88108(13) 0.0113(4) 1 0
O2 O2- 2 i -0.4821(4) 0.2104(4) 0.50773(17) 0.0207(5) 1 0
O3 O2- 2 i -0.7593(4) 0.3514(4) 0.62579(15) 0.0224(5) 1 0
O4 O2- 2 i -0.8165(4) -0.1988(4) 0.60889(15) 0.0185(5) 1 0
O5 O2- 2 i -0.1905(4) 0.1201(4) 0.62002(14) 0.0194(5) 1 0
O6 O2- 2 i -0.4801(4) 0.5390(4) 0.87672(16) 0.0207(5) 1 0
O7 O2- 2 i -0.2495(4) 0.4662(4) 1.01276(15) 0.0214(5) 1 0
O8 O2- 2 i -0.8771(3) 0.1337(3) 0.50255(14) 0.0139(4) 1 0
O9 O2- 2 i -0.7991(4) 0.5343(4) 0.47824(15) 0.0178(5) 1 0
O10 O2- 2 i -0.4631(4) 0.2862(4) 0.73553(16) 0.0199(5) 1 0
O11 O2- 2 i -0.0509(4) 0.3390(4) 0.73331(14) 0.0169(4) 1 0
O12 O2- 2 i -0.7748(3) -0.4003(3) 0.75398(14) 0.0141(4) 1 0
O13 O2- 2 i -0.7150(4) 0.0149(4) 0.73235(16) 0.0227(5) 1 0
O14 O2- 2 i 0.2321(3) 0.2894(3) 0.84803(13) 0.0115(4) 1 0
O15 O2- 2 i 0.2072(4) 0.1155(4) 0.99754(15) 0.0184(5) 1 0
O16 O2- 2 i -0.1583(4) -0.0502(3) 0.76776(14) 0.0152(4) 1 0
O17 O2- 2 i 0.5249(3) -0.0366(4) 0.89474(16) 0.0185(5) 1 0
O18 O2- 2 i -0.0876(3) 0.6140(3) 0.87575(14) 0.0132(4) 1 0
O19 O2- 2 i -0.1612(4) 0.2064(4) 0.89109(16) 0.0209(5) 1 0
O20 O2- 2 i -0.4330(4) -0.2949(5) 0.66863(18) 0.0264(6) 1 0
loop_
_atom_site_aniso_label
_atom_site_aniso_type_symbol
_atom_site_aniso_U_11
_atom_site_aniso_U_22
_atom_site_aniso_U_33
_atom_site_aniso_U_12
_atom_site_aniso_U_13
_atom_site_aniso_U_23
Mo1 Mo6+ 0.00854(10) 0.00681(10) 0.00877(12) -0.00308(7) -0.00178(8) 0.00100(8)
Mo2 Mo6+ 0.00972(10) 0.00859(10) 0.00828(12) -0.00190(8) -0.00067(8) 0.00004(8)
Mo3 Mo6+ 0.00992(10) 0.00895(10) 0.00944(12) -0.00417(8) -0.00085(8) -0.00018(8)
Mo4 Mo6+ 0.01080(10) 0.00849(11) 0.01038(12) -0.00458(8) 0.00228(8) -0.00048(8)
Mo5 Mo6+ 0.01078(10) 0.01121(11) 0.01307(13) -0.00436(8) -0.00001(8) 0.00261(9)
Mg1 Mg2+ 0.0064(4) 0.0076(4) 0.0082(5) -0.0015(3) -0.0010(3) -0.0003(3)
Mg2 Mg2+ 0.0069(4) 0.0064(4) 0.0079(5) -0.0017(3) -0.0006(3) -0.0003(3)
Mg3 Mg2+ 0.0071(4) 0.0077(4) 0.0104(5) -0.0018(3) -0.0005(3) 0.0005(3)
Al1 Al3+ 0.0112(4) 0.0112(4) 0.0100(4) -0.0030(3) -0.0004(3) -0.0002(3)
Na1 Na1+ 0.0227(9) 0.0202(9) 0.200(4) -0.0027(7) -0.0387(15) -0.0037(14)
O1 O2- 0.0113(8) 0.0116(9) 0.0123(10) -0.0047(7) -0.0027(7) -0.0002(7)
O2 O2- 0.0117(9) 0.0199(11) 0.0311(15) -0.0037(8) -0.0018(9) -0.0035(10)
O3 O2- 0.0337(14) 0.0228(12) 0.0136(12) -0.0126(11) 0.0027(10) -0.0032(9)
O4 O2- 0.0203(11) 0.0173(11) 0.0181(12) -0.0037(9) -0.0044(9) 0.0030(9)
O5 O2- 0.0235(11) 0.0233(12) 0.0112(11) -0.0037(9) -0.0016(9) -0.0017(9)
O6 O2- 0.0166(10) 0.0228(12) 0.0239(13) -0.0067(9) 0.0002(9) -0.0024(10)
O7 O2- 0.0280(13) 0.0220(12) 0.0145(12) -0.0071(10) 0.0042(9) 0.0000(9)
O8 O2- 0.0130(9) 0.0141(9) 0.0155(11) -0.0044(8) -0.0026(8) -0.0012(8)
O9 O2- 0.0190(10) 0.0135(10) 0.0211(12) -0.0051(8) 0.0011(9) 0.0043(9)
O10 O2- 0.0167(10) 0.0167(11) 0.0242(13) 0.0018(9) 0.0036(9) -0.0039(9)
O11 O2- 0.0209(11) 0.0154(10) 0.0159(12) -0.0070(9) -0.0049(9) 0.0019(8)
O12 O2- 0.0130(9) 0.0136(10) 0.0146(11) -0.0013(8) 0.0002(8) 0.0042(8)
O13 O2- 0.0292(13) 0.0186(11) 0.0230(14) -0.0117(10) 0.0006(10) -0.0002(10)
O14 O2- 0.0123(9) 0.0089(9) 0.0132(10) -0.0025(7) -0.0009(7) 0.0018(7)
O15 O2- 0.0261(12) 0.0175(11) 0.0128(11) -0.0065(9) -0.0025(9) -0.0012(9)
O16 O2- 0.0185(10) 0.0116(9) 0.0155(11) -0.0031(8) -0.0042(8) 0.0030(8)
O17 O2- 0.0098(9) 0.0181(11) 0.0274(14) -0.0025(8) -0.0039(9) 0.0023(9)
O18 O2- 0.0128(9) 0.0110(9) 0.0167(11) -0.0057(8) 0.0040(8) -0.0010(8)
O19 O2- 0.0278(12) 0.0109(10) 0.0252(14) -0.0077(9) 0.0072(10) -0.0027(9)
O20 O2- 0.0116(10) 0.0340(15) 0.0331(16) -0.0044(10) 0.0019(10) 0.0042(12)
#End of TTdata_391348-ICSD