
#(C) 2019 by FIZ Karlsruhe - Leibniz Institute for Information Infrastructure.  All rights reserved.
data_391382-ICSD
_database_code_ICSD 391382
_audit_creation_date 2007-08-01
_chemical_name_systematic 'Sodium oxoditellurate(VI)'
_chemical_formula_structural 'Na2 (Te2 O7)'
_chemical_formula_sum 'Na2 O7 Te2'
_chemical_name_structure_type Ca2Sb2O7
_exptl_crystal_density_diffrn 5.05
_publ_section_title

;
Na2 Te2 O7: Ein Natrium-Oxoditellurat(VI) mit eckenverknuepften [TeO6]6- -
Oktaedern
;
loop_
_citation_id
_citation_journal_full
_citation_year
_citation_journal_volume
_citation_page_first
_citation_page_last
_citation_journal_id_ASTM
primary 'Zeitschrift fuer Anorganische und Allgemeine Chemie (1950) (DE)' 2006
632 2151 2151 ZAACAB
loop_
_publ_author_name
'Meier, S.F.'
'Schleid, T.'
_cell_length_a 7.2278(5)
_cell_length_b 10.0991(7)
_cell_length_c 7.4403(5)
_cell_angle_alpha 90.
_cell_angle_beta 90.
_cell_angle_gamma 90.
_cell_volume 543.1
_cell_formula_units_Z 4
_symmetry_space_group_name_H-M 'I m m a'
_symmetry_Int_Tables_number 74
_refine_ls_R_factor_all 0.0223
loop_
_symmetry_equiv_pos_site_id
_symmetry_equiv_pos_as_xyz
1 '-x, y+1/2, -z'
2 '-x, -y+1/2, z'
3 '-x, y, z'
4 '-x, -y, -z'
5 'x, -y+1/2, z'
6 'x, y+1/2, -z'
7 'x, -y, -z'
8 'x, y, z'
9 '-x+1/2, y, -z+1/2'
10 '-x+1/2, -y, z+1/2'
11 '-x+1/2, y+1/2, z+1/2'
12 '-x+1/2, -y+1/2, -z+1/2'
13 'x+1/2, -y, z+1/2'
14 'x+1/2, y, -z+1/2'
15 'x+1/2, -y+1/2, -z+1/2'
16 'x+1/2, y+1/2, z+1/2'
loop_
_atom_type_symbol
_atom_type_oxidation_number
Na1+ 1
Te6+ 6
O2- -2
loop_
_atom_site_label
_atom_site_type_symbol
_atom_site_symmetry_multiplicity
_atom_site_Wyckoff_symbol
_atom_site_fract_x
_atom_site_fract_y
_atom_site_fract_z
_atom_site_B_iso_or_equiv
_atom_site_occupancy
_atom_site_attached_hydrogens
Na1 Na1+ 4 b 0. 0. 0.5 0.0102(6) 1 0
Na2 Na1+ 4 c 0.25 0.25 0.25 0.0118(6) 1 0
Te1 Te6+ 4 a 0. 0. 0. 0.00768(14) 1 0
Te2 Te6+ 4 d 0.25 0.25 0.75 0.00674(14) 1 0
O1 O2- 4 e 0. 0.25 0.6596(6) 0.0113(9) 1 0
O2 O2- 8 h 0. 0.0814(3) 0.2178(4) 0.0140(7) 1 0
O3 O2- 16 j 0.2934(3) 0.1210(2) 0.5702(3) 0.0129(5) 1 0
loop_
_atom_site_aniso_label
_atom_site_aniso_type_symbol
_atom_site_aniso_U_11
_atom_site_aniso_U_22
_atom_site_aniso_U_33
_atom_site_aniso_U_12
_atom_site_aniso_U_13
_atom_site_aniso_U_23
Na1 Na1+ 0.0101(13) 0.0159(15) 0.0047(12) 0. 0. 0.0013(11)
Na2 Na1+ 0.0141(14) 0.0085(14) 0.0129(14) 0. -0.0018(11) 0.
Te1 Te6+ 0.0069(2) 0.0084(2) 0.0078(2) 0. 0. 0.00069(18)
Te2 Te6+ 0.0060(2) 0.0070(2) 0.0072(2) 0. 0.00045(16) 0.
O1 O2- 0.011(2) 0.015(2) 0.008(2) 0. 0. 0.
O2 O2- 0.0156(15) 0.0150(17) 0.0114(16) 0. 0. -0.0016(13)
O3 O2- 0.0103(10) 0.0150(12) 0.0134(11) 0.0013(9) 0.0012(9) -0.0032(10)
#End of TTdata_391382-ICSD