
#(C) 2019 by FIZ Karlsruhe - Leibniz Institute for Information Infrastructure.  All rights reserved.
data_3923-ICSD
_database_code_ICSD 3923
_audit_creation_date 2019-08-01
_chemical_name_systematic 'Sodium pentafluorouranate(IV) monohydrate - beta'
_chemical_formula_structural 'Na U F5 (H2 O)'
_chemical_formula_sum 'H2 F5 Na1 O1 U1'
_exptl_crystal_density_diffrn 5.33
_cell_measurement_temperature 297.
_publ_section_title

;
Expanding pentafluorouranates: hydrothermal synthesis and characterization of
beta-NaUF5 and beta-NaUF5.H2O
;
loop_
_citation_id
_citation_journal_full
_citation_year
_citation_journal_volume
_citation_page_first
_citation_page_last
_citation_journal_id_ASTM
primary 'RSC Advances' 2018 8 28642 28648 RSCACL
loop_
_publ_author_name
'Chemey, Alexander T.'
'Sperling, Joseph M.'
'Albrecht-Schmitt, Thomas E.'
_cell_length_a 7.957(3)
_cell_length_b 7.027(2)
_cell_length_c 8.792(3)
_cell_angle_alpha 90
_cell_angle_beta 108.678(7)
_cell_angle_gamma 90
_cell_volume 465.7
_cell_formula_units_Z 4
_symmetry_space_group_name_H-M 'P 1 21/c 1'
_symmetry_Int_Tables_number 14
_refine_ls_R_factor_all 0.036
loop_
_symmetry_equiv_pos_site_id
_symmetry_equiv_pos_as_xyz
1 'x, -y+1/2, z+1/2'
2 '-x, -y, -z'
3 '-x, y+1/2, -z+1/2'
4 'x, y, z'
loop_
_atom_type_symbol
_atom_type_oxidation_number
U4+ 4
F1- -1
Na1+ 1
O2- -2
H1+ 1
loop_
_atom_site_label
_atom_site_type_symbol
_atom_site_symmetry_multiplicity
_atom_site_Wyckoff_symbol
_atom_site_fract_x
_atom_site_fract_y
_atom_site_fract_z
_atom_site_B_iso_or_equiv
_atom_site_occupancy
_atom_site_attached_hydrogens
U1 U4+ 4 e 0.57881(4) 0.16299(5) 0.85335(4) 0.0074(2) 1 0
F1 F1- 4 e 0.3390(8) 0.3605(7) 0.7381(8) 0.0121(13) 1 0
F2 F1- 4 e 0.6455(8) 0.4858(8) 0.8413(7) 0.0138(12) 1 0
F3 F1- 4 e 0.8667(10) 0.1548(8) 0.9336(10) 0.0236(17) 1 0
F4 F1- 4 e 0.3451(7) 0.0822(9) 0.9506(7) 0.0139(12) 1 0
F5 F1- 4 e 0.6300(9) 0.2883(9) 1.1107(7) 0.0189(13) 1 0
Na1 Na1+ 4 e 1.1349(7) 0.2974(7) 1.0214(6) 0.0276(11) 1 0
O1 O2- 4 e 0.9980(11) 0.5106(13) 0.8115(11) 0.0287(19) 1 0
H1 H1+ 4 e 0.915(5) 0.471(7) 0.730(4) 0.11(9) 1 0
H2 H1+ 4 e 1.064(6) 0.585(6) 0.778(6) 0.03(3) 1 0
loop_
_atom_site_aniso_label
_atom_site_aniso_type_symbol
_atom_site_aniso_U_11
_atom_site_aniso_U_22
_atom_site_aniso_U_33
_atom_site_aniso_U_12
_atom_site_aniso_U_13
_atom_site_aniso_U_23
U1 U4+ 0.0088(3) 0.0065(3) 0.0074(3) -0.00006(11) 0.00308(17) 0.00032(10)
F1 F1- 0.007(3) 0.012(3) 0.014(3) -0.001(2) -0.001(2) 0.001(2)
F2 F1- 0.017(3) 0.011(3) 0.012(3) -0.001(2) 0.002(2) 0.000(2)
F3 F1- 0.018(4) 0.019(4) 0.030(4) 0.001(2) 0.002(3) -0.001(2)
F4 F1- 0.012(3) 0.014(3) 0.017(3) -0.001(2) 0.007(2) 0.002(2)
F5 F1- 0.031(4) 0.012(3) 0.017(3) -0.003(3) 0.014(3) -0.003(3)
Na1 Na1+ 0.026(3) 0.020(2) 0.031(3) 0.003(2) 0.001(2) -0.002(2)
O1 O2- 0.021(5) 0.036(5) 0.031(5) -0.007(4) 0.011(4) 0.003(4)
#End of TTdata_3923-ICSD