
#(C) 2019 by FIZ Karlsruhe - Leibniz Institute for Information Infrastructure.  All rights reserved.
data_39255-ICSD
_database_code_ICSD 39255
_audit_creation_date 1990-12-27
_audit_update_record 2005-10-01
_chemical_name_systematic 'Sodium copper iron zinc sulfide *'
_chemical_formula_structural 'Na (Cu0.67 Fe0.22 Zn0.11)2 S2'
_chemical_formula_sum 'Cu1.34 Fe0.44 Na1 S2 Zn0.22'
_chemical_name_mineral Chvilevaite
_exptl_crystal_density_diffrn 3.94
_publ_section_title

;
Crystal structure of natural alkaline sulfide, chvilevaite, Na (Cu, Fe, Zn)2
S2
;
loop_
_citation_id
_citation_journal_full
_citation_year
_citation_journal_volume
_citation_page_first
_citation_page_last
_citation_journal_id_ASTM
primary 'Doklady Akademii Nauk SSSR' 1990 310 90 93 DANKAS
loop_
_publ_author_name
'Kaplunnik, L.N.'
'Petrova, I.V.'
'Pobedimskaya, E.A.'
'Kachalovskaya, V.M.'
'Osipov, B.S.'
_cell_length_a 3.873(1)
_cell_length_b 3.873(1)
_cell_length_c 6.848(2)
_cell_angle_alpha 90.
_cell_angle_beta 90.
_cell_angle_gamma 120.
_cell_volume 88.96
_cell_formula_units_Z 1
_symmetry_space_group_name_H-M 'P 3 m 1'
_symmetry_Int_Tables_number 156
_refine_ls_R_factor_all 0.045
loop_
_symmetry_equiv_pos_site_id
_symmetry_equiv_pos_as_xyz
1 '-x+y, y, z'
2 'x, x-y, z'
3 '-y, -x, z'
4 '-x+y, -x, z'
5 '-y, x-y, z'
6 'x, y, z'
loop_
_atom_type_symbol
_atom_type_oxidation_number
Cu1+ 1.2
Fe2+ 2
Zn2+ 2
Cu1+ 1.2
Fe2+ 2
Zn2+ 2
S2- -2
Na1+ 1
loop_
_atom_site_label
_atom_site_type_symbol
_atom_site_symmetry_multiplicity
_atom_site_Wyckoff_symbol
_atom_site_fract_x
_atom_site_fract_y
_atom_site_fract_z
_atom_site_B_iso_or_equiv
_atom_site_occupancy
_atom_site_attached_hydrogens
Cu1 Cu1+ 1 c 0.6667 0.3333 0.1094(3) . 0.67 0
Fe1 Fe2+ 1 c 0.6667 0.3333 0.1094(3) . 0.22 0
Zn1 Zn2+ 1 c 0.6667 0.3333 0.1094(3) . 0.11 0
Cu2 Cu1+ 1 a 0 0 0.3557(3) . 0.67 0
Fe2 Fe2+ 1 a 0 0 0.3557(3) . 0.22 0
Zn2 Zn2+ 1 a 0 0 0.3557(3) . 0.11 0
S1 S2- 1 a 0 0 0 . 1. 0
S2 S2- 1 c 0.6667 0.3333 0.4629(5) . 1. 0
Na1 Na1+ 1 b 0.3333 0.6667 0.738(3) . 1. 0
loop_
_atom_site_aniso_label
_atom_site_aniso_type_symbol
_atom_site_aniso_B_11
_atom_site_aniso_B_22
_atom_site_aniso_B_33
_atom_site_aniso_B_12
_atom_site_aniso_B_13
_atom_site_aniso_B_23
Cu1 Cu1+ 1.33 1.33 1.64 0.665 0 0
Fe1 Fe2+ 1.33 1.33 1.64 0.665 0 0
Zn1 Zn2+ 1.33 1.33 1.64 0.665 0 0
Cu2 Cu1+ 0.83 0.83 0.99 0.415 0 0
Fe2 Fe2+ 0.83 0.83 0.99 0.415 0 0
Zn2 Zn2+ 0.83 0.83 0.99 0.415 0 0
S1 S2- 0.5 0.5 0.52 0.25 0 0
S2 S2- 1.19 1.19 1.32 0.595 0 0
Na1 Na1+ 0.7 0.7 0.32 0.35 0 0
#End of TTdata_39255-ICSD