
#(C) 2019 by FIZ Karlsruhe - Leibniz Institute for Information Infrastructure.  All rights reserved.
data_39271-ICSD
_database_code_ICSD 39271
_audit_creation_date 1990-12-27
_audit_update_record 2006-04-01
_chemical_name_systematic
'Pentasodium trihydrogen tetrakis(selenate(VI)) dihydrate'
_chemical_formula_structural 'Na5 H3 (Se O4)4 (H2 O)2'
_chemical_formula_sum 'H7 Na5 O18 Se4'
_chemical_name_structure_type Na5H3(SeO4)4(H2O)2
_exptl_crystal_density_diffrn 2.98
_publ_section_title
'Structure and thermal stability of acid selenate Na5 H3 (Se O4)4 * 2(H2 O)'
loop_
_citation_id
_citation_journal_full
_citation_year
_citation_journal_volume
_citation_page_first
_citation_page_last
_citation_journal_id_ASTM
primary 'Zhurnal Neorganicheskoi Khimii' 1990 35 1363 1368 ZNOKAQ
loop_
_publ_author_name
'Kozlova, N.P.'
'Iskhakova, L.D.'
'Marugin, V.V.'
'Zhadanov, B.V.'
'Polyakova, I.A.'
_cell_length_a 9.957(3)
_cell_length_b 7.254(1)
_cell_length_c 5.954(2)
_cell_angle_alpha 100.3(3)
_cell_angle_beta 98.8(2)
_cell_angle_gamma 102.4(2)
_cell_volume 404.97
_cell_formula_units_Z 1
_symmetry_space_group_name_H-M 'P -1'
_symmetry_Int_Tables_number 2
_refine_ls_R_factor_all 0.042
loop_
_symmetry_equiv_pos_site_id
_symmetry_equiv_pos_as_xyz
1 '-x, -y, -z'
2 'x, y, z'
loop_
_atom_type_symbol
_atom_type_oxidation_number
Na1+ 1
Se6+ 6
O2- -2
H1+ 1
loop_
_atom_site_label
_atom_site_type_symbol
_atom_site_symmetry_multiplicity
_atom_site_Wyckoff_symbol
_atom_site_fract_x
_atom_site_fract_y
_atom_site_fract_z
_atom_site_B_iso_or_equiv
_atom_site_occupancy
_atom_site_attached_hydrogens
Na1 Na1+ 2 i 0.1035(3) 0.8297(5) 0.3701(6) 1.49(6) 1. 0
Na2 Na1+ 1 f 0.5 0 0.5 3.9(1) 1. 0
Na3 Na1+ 2 i 0.3080(3) 0.2603(5) 0.8440(6) 2.36(7) 1. 0
Se1 Se6+ 2 i 0.67882(7) 0.2060(1) 0.0880(1) 1.05(1) 1. 0
Se2 Se6+ 2 i 0.12748(6) 0.3115(1) 0.2490(1) 0.82(1) 1. 0
O1 O2- 2 i 0.7275(6) 0.0859(8) 0.278(1) 2.1(1) 1. 0
O2 O2- 2 i 0.7783(5) 0.4386(8) 0.184(1) 2.0(1) 1. 0
O3 O2- 2 i 0.7077(5) 0.1266(9) -.1613(9) 1.9(1) 1. 0
O4 O2- 2 i 0.5228(6) 0.2323(1) 0.084(1) 2.2(1) 1. 0
O5 O2- 2 i 0.2922(5) 0.3904(8) 0.2428(9) 1.6(1) 1. 0
O6 O2- 2 i 0.0554(6) 0.1663(8) -.0148(9) 1.5(1) 1. 0
O7 O2- 2 i 0.0479(5) 0.4868(8) 0.273(1) 1.7(1) 1. 0
O8 O2- 2 i 0.1053(5) 0.1834(8) 0.4491(8) 1.4(1) 1. 0
O9 O2- 2 i 0.5366(6) 0.7047(9) 0.412(1) 2.6(1) 1. 0
H1 H1+ 2 i 0.56(1) 0.64(2) 0.46(2) 6.(3) 1. 0
H2 H1+ 2 i 0.47(1) 0.63(2) 0.38(2) 4.(3) 1. 0
H3 H1+ 2 i 0.017(9) 0.034(10) 0.034(10) 6.(3) 1. 0
H4 H1+ 2 i 0.049(9) 0.43(1) 0.19(1) 3.(2) 0.5 0
#End of TTdata_39271-ICSD