
#(C) 2019 by FIZ Karlsruhe - Leibniz Institute for Information Infrastructure.  All rights reserved.
data_39275-ICSD
_database_code_ICSD 39275
_audit_creation_date 1990-12-27
_audit_update_record 2009-02-01
_chemical_name_systematic 'Tetrasodium oxotitanium bis(phosphate(V)) - HT'
_chemical_formula_structural 'Na4 (Ti O) (P O4)2'
_chemical_formula_sum 'Na4 O9 P2 Ti1'
_exptl_crystal_density_diffrn 2.77
_cell_measurement_temperature 573.
_publ_section_title
'Atomic structure of crystals of the superionic conductor Na4 Ti P2 O9'
loop_
_citation_id
_citation_journal_full
_citation_year
_citation_journal_volume
_citation_page_first
_citation_page_last
_citation_journal_id_ASTM
primary Kristallografiya 1990 35 847 851 KRISAJ
loop_
_publ_author_name
'Maksimov, B.A.'
'Klokova, N.E.'
'Verin, I.A.'
'Timofeeva, V.A.'
_cell_length_a 15.647(8)
_cell_length_b 14.989(8)
_cell_length_c 7.081(5)
_cell_angle_alpha 90.
_cell_angle_beta 90.
_cell_angle_gamma 90.
_cell_volume 1660.73
_cell_formula_units_Z 8
_symmetry_space_group_name_H-M 'I b a m'
_symmetry_Int_Tables_number 72
_refine_ls_R_factor_all 0.0299
loop_
_symmetry_equiv_pos_site_id
_symmetry_equiv_pos_as_xyz
1 '-x, y, z+1/2'
2 'x, -y, z+1/2'
3 'x, y, -z'
4 '-x, -y, -z'
5 'x, -y, -z+1/2'
6 '-x, y, -z+1/2'
7 '-x, -y, z'
8 'x, y, z'
9 '-x+1/2, y+1/2, z'
10 'x+1/2, -y+1/2, z'
11 'x+1/2, y+1/2, -z+1/2'
12 '-x+1/2, -y+1/2, -z+1/2'
13 'x+1/2, -y+1/2, -z'
14 '-x+1/2, y+1/2, -z'
15 '-x+1/2, -y+1/2, z+1/2'
16 'x+1/2, y+1/2, z+1/2'
loop_
_atom_type_symbol
_atom_type_oxidation_number
Ti4+ 4
P5+ 5
Na1+ 1
O2- -2
loop_
_atom_site_label
_atom_site_type_symbol
_atom_site_symmetry_multiplicity
_atom_site_Wyckoff_symbol
_atom_site_fract_x
_atom_site_fract_y
_atom_site_fract_z
_atom_site_B_iso_or_equiv
_atom_site_occupancy
_atom_site_attached_hydrogens
Ti1 Ti4+ 8 e 0.25 0.25 0.25 2.74(4) 1. 0
P1 P5+ 8 j 0.1196(2) 0.1236(3) 0 1.87(8) 1. 0
P2 P5+ 8 j 0.1228(2) 0.3800(3) 0.5 2.24(9) 1. 0
Na1 Na1+ 8 f 0.2391(4) 0 0.25 6.1(1) 0.99(1) 0
Na2 Na1+ 8 g 0 0.2614(5) 0.25 5.7(1) 0.98(2) 0
Na3 Na1+ 8 j 0.1107(6) 0.1239(6) 0.5 4.5(2) 0.73(2) 0
Na4 Na1+ 8 j 0.1148(5) 0.3871(6) 0 4.5(2) 0.80(2) 0
Na5 Na1+ 4 a 0 0 0.25 9.8(7) 0.59(2) 0
Na6 Na1+ 4 b 0.5 0 0.25 9.0(9) 0.41(2) 0
O1 O2- 8 j 0.2467(8) 0.3001(4) 0 2.0(1) 1. 0
O2 O2- 16 k 0.3331(4) 0.3435(3) 0.320(1) 3.0(1) 1. 0
O3 O2- 16 k 0.1533(4) 0.3286(3) 0.323(1) 3.4(2) 1. 0
O4 O2- 8 j 0.1228(5) 0.0235(5) 0 4.0(2) 1. 0
O5 O2- 8 j 0.0276(5) 0.3777(6) 0.5 3.9(2) 1. 0
O6 O2- 8 j 0.1598(5) 0.4716(5) 0.5 3.6(2) 1. 0
O7 O2- 8 j 0.0299(5) 0.1598(6) 0 4.3(2) 1. 0
#End of TTdata_39275-ICSD