
#(C) 2019 by FIZ Karlsruhe - Leibniz Institute for Information Infrastructure.  All rights reserved.
data_39376-ICSD
_database_code_ICSD 39376
_audit_creation_date 1991-07-10
_audit_update_record 2006-04-01
_chemical_name_systematic 'Disodium closo-dodecaborane tetrahydrate'
_chemical_formula_structural 'Na2 (B12 H12) (H2 O)4'
_chemical_formula_sum 'H20 B12 Na2 O4'
_exptl_crystal_density_diffrn 1.28
_cell_measurement_temperature 250.
_publ_section_title

;
Dynamic structure of Na2 B12 H12 *4 H2 O in temperature interval 130-300 K.
Structural transformation at 255 K.
;
loop_
_citation_id
_citation_journal_full
_citation_year
_citation_journal_volume
_citation_page_first
_citation_page_last
_citation_journal_id_ASTM
primary 'Koordinatsionnaya Khimiya' 1991 17 21 28 KOKHDC
loop_
_publ_author_name
'Ponomarev, V.I.'
'Lyubeznova, T.Yu.'
'Solntsev, K.A.'
'Kuznetsov, N.T.'
_cell_length_a 9.980(3)
_cell_length_b 9.980(3)
_cell_length_c 13.567(4)
_cell_angle_alpha 90.
_cell_angle_beta 90.
_cell_angle_gamma 90.
_cell_volume 1351.28
_cell_formula_units_Z 4
_symmetry_space_group_name_H-M 'P 42 21 2'
_symmetry_Int_Tables_number 94
_refine_ls_R_factor_all 0.061
loop_
_symmetry_equiv_pos_site_id
_symmetry_equiv_pos_as_xyz
1 '-y+1/2, x+1/2, z+1/2'
2 'y+1/2, -x+1/2, z+1/2'
3 '-y, -x, -z'
4 'y, x, -z'
5 'x+1/2, -y+1/2, -z+1/2'
6 '-x+1/2, y+1/2, -z+1/2'
7 '-x, -y, z'
8 'x, y, z'
loop_
_atom_type_symbol
_atom_type_oxidation_number
Na1+ 1
O2- -2
B1- -1.166
H1+ 1
O2- -2
loop_
_atom_site_label
_atom_site_type_symbol
_atom_site_symmetry_multiplicity
_atom_site_Wyckoff_symbol
_atom_site_fract_x
_atom_site_fract_y
_atom_site_fract_z
_atom_site_B_iso_or_equiv
_atom_site_occupancy
_atom_site_attached_hydrogens
Na1 Na1+ 8 g 0.4417(6) 0.4417(6) 0.25 5.12 0.25 0
Na2 Na1+ 8 g 0.4485(6) 0.5515(6) 0.75 5.49 0.25 0
Na3 Na1+ 8 g 0.4522(9) 0.4768(5) 0.5005(5) 7.91 0.5 0
O1 O2- 8 g 0.0361(1) 0.0546(1) 0.0155(1) 3.88 0.5 0
O2 O2- 8 g 0.3572(9) 0.0542(1) 0.0108(1) 2.78 0.5 0
B1 B1- 8 g 0.4357(6) 0.0619(5) 0.0131(2) 2.33 1. 0
B2 B1- 8 g 0.4369(7) 0.0629(7) 0.2258(2) 2.82 1. 0
B3 B1- 8 g 0.3359(6) 0.0390(6) 0.1191(4) 2.34 1. 0
B4 B1- 8 g 0.6021(5) 0.1009(6) 0.0533(2) 2.41 1. 0
B5 B1- 8 g 0.6015(5) 0.1016(6) 0.1842(2) 2.73 1. 0
B6 B1- 8 g 0.4607(7) 0.1636(6) 0.1192(5) 2.88 1. 0
H1 H1+ 8 g 0.405(3) 0.102(3) -.052(2) . 1. 0
H2 H1+ 8 g 0.394(3) 0.105(3) 0.292(2) . 1. 0
H3 H1+ 8 g 0.218(3) 0.072(3) 0.111(3) . 1. 0
H4 H1+ 8 g 0.680(3) 0.159(3) 0.009(2) . 1. 0
H5 H1+ 8 g 0.665(4) 0.179(3) 0.225(2) . 1. 0
H6 H1+ 8 g 0.413(3) 0.265(3) 0.125(3) . 1. 0
H7 H1+ 8 g 0.619(3) 0.325(3) 0.391(2) . 1. 0
H8 H1+ 8 g 0.521(3) 0.290(3) 0.356(2) . 1. 0
H9 H1+ 8 g 0.348(3) 0.369(3) -.131(2) . 1. 0
H10 H1+ 8 g 0.465(3) 0.293(3) -.097(2) . 1. 0
O3 O2- 8 g 0.650(1) 0.5273(8) 0.648(1) 3.66 0.5 0
O4 O2- 8 g 0.634(2) 0.550(1) 0.6018(9) 3.37 0.5 0
#End of TTdata_39376-ICSD