
#(C) 2019 by FIZ Karlsruhe - Leibniz Institute for Information Infrastructure.  All rights reserved.
data_39375-ICSD
_database_code_ICSD 39375
_audit_creation_date 1991-07-10
_audit_update_record 2006-04-01
_chemical_name_systematic 'Disodium closo-dodecaborane tetrahydrate'
_chemical_formula_structural 'Na2 (B12 H12) (H2 O)4'
_chemical_formula_sum 'H20 B12 Na2 O4'
_exptl_crystal_density_diffrn 1.3
_cell_measurement_temperature 130.
_publ_section_title

;
Dynamic structure of Na2 B12 H12 *4 H2 O in temperature interval 130-300 K.
Structural transformation at 255 K.
;
loop_
_citation_id
_citation_journal_full
_citation_year
_citation_journal_volume
_citation_page_first
_citation_page_last
_citation_journal_id_ASTM
primary 'Koordinatsionnaya Khimiya' 1991 17 21 28 KOKHDC
loop_
_publ_author_name
'Ponomarev, V.I.'
'Lyubeznova, T.Yu.'
'Solntsev, K.A.'
'Kuznetsov, N.T.'
_cell_length_a 9.962(3)
_cell_length_b 9.962(3)
_cell_length_c 13.414(4)
_cell_angle_alpha 90.
_cell_angle_beta 90.
_cell_angle_gamma 90.
_cell_volume 1331.22
_cell_formula_units_Z 4
_symmetry_space_group_name_H-M 'P 42 21 2'
_symmetry_Int_Tables_number 94
_refine_ls_R_factor_all 0.066
loop_
_symmetry_equiv_pos_site_id
_symmetry_equiv_pos_as_xyz
1 '-y+1/2, x+1/2, z+1/2'
2 'y+1/2, -x+1/2, z+1/2'
3 '-y, -x, -z'
4 'y, x, -z'
5 'x+1/2, -y+1/2, -z+1/2'
6 '-x+1/2, y+1/2, -z+1/2'
7 '-x, -y, z'
8 'x, y, z'
loop_
_atom_type_symbol
_atom_type_oxidation_number
Na1+ 1
O2- -2
B1- -1.166
H1+ 1
Na1+ 1
O2- -2
loop_
_atom_site_label
_atom_site_type_symbol
_atom_site_symmetry_multiplicity
_atom_site_Wyckoff_symbol
_atom_site_fract_x
_atom_site_fract_y
_atom_site_fract_z
_atom_site_B_iso_or_equiv
_atom_site_occupancy
_atom_site_attached_hydrogens
Na1 Na1+ 8 g 0.4371(2) 0.4371(2) 0.25 1.75 0.25 0
Na2 Na1+ 8 g 0.4493(2) 0.5507(2) 0.75 1.85 0.25 0
O1 O2- 8 g 0.3619(4) 0.5522(4) 0.1515(4) 1.35 0.5 0
O2 O2- 8 g 0.3506(3) 0.5450(4) 0.1050(4) 1.28 0.5 0
B1 B1- 8 g 0.4379(2) 0.0636(2) 0.0114(3) 2.64 1. 0
B2 B1- 8 g 0.4389(5) 0.0645(3) 0.2269(2) 3.15 1. 0
B3 B1- 8 g 0.3352(4) 0.0412(3) 0.1188(2) 2.26 1. 0
B4 B1- 8 g 0.6034(3) 0.1013(3) 0.0523(2) 1.95 1. 0
B5 B1- 8 g 0.6024(5) 0.1006(3) 0.1853(2) 2.94 1. 0
B6 B1- 8 g 0.4624(4) 0.1652(2) 0.1190(2) 2.23 1. 0
H1 H1+ 8 g 0.400(3) 0.105(3) -.052(2) . 1. 0
H2 H1+ 8 g 0.396(3) 0.107(3) 0.294(2) . 1. 0
H3 H1+ 8 g 0.217(3) 0.069(3) 0.118(2) . 1. 0
H4 H1+ 8 g 0.680(3) 0.163(3) 0.007(2) . 1. 0
H5 H1+ 8 g 0.664(3) 0.175(3) 0.230(2) . 1. 0
H6 H1+ 8 g 0.428(3) 0.273(3) 0.122(2) . 1. 0
H7 H1+ 8 g 0.624(3) 0.332(3) 0.382(2) . 1. 0
H8 H1+ 8 g 0.512(3) 0.273(3) 0.367(2) . 1. 0
H9 H1+ 8 g 0.343(3) 0.372(3) -.124(2) . 1. 0
H10 H1+ 8 g 0.464(3) 0.279(3) -.102(2) . 1. 0
Na3 Na1+ 8 g 0.4618(2) 0.4512(2) 0.4981(1) 1.75 0.5 0
O3 O2- 8 g 0.6525(3) 0.5191(3) 0.6530(3) 1.61 0.5 0
O4 O2- 8 g 0.6282(3) 0.5558(3) 0.6025(3) 1.31 0.5 0
#End of TTdata_39375-ICSD