
#(C) 2019 by FIZ Karlsruhe - Leibniz Institute for Information Infrastructure.  All rights reserved.
data_39474-ICSD
_database_code_ICSD 39474
_audit_creation_date 1992-08-20
_chemical_name_systematic 'Sodium barium neodymium trigermanate'
_chemical_formula_structural 'Na Ba Nd (Ge3 O9)'
_chemical_formula_sum 'Ba1 Ge3 Na1 Nd1 O9'
_chemical_name_structure_type NaBaNdSi3O9
_exptl_crystal_density_diffrn 5.
_publ_section_title 'Crystal structure of NaBaNd(Ge3O9)'
loop_
_citation_id
_citation_journal_full
_citation_year
_citation_journal_volume
_citation_page_first
_citation_page_last
_citation_journal_id_ASTM
primary 'Zhurnal Strukturnoi Khimii' 1991 32 90 92 ZSTKAI
loop_
_publ_author_name
'Malinovskii, Yu.A.'
'Belokoneva, E.L.'
'Dem'yanets, L.N. (Demyanets, L.N.)'
_cell_length_a 5.876(1)
_cell_length_b 11.688(3)
_cell_length_c 12.899(3)
_cell_angle_alpha 90.
_cell_angle_beta 90.
_cell_angle_gamma 90.
_cell_volume 885.89
_cell_formula_units_Z 4
_symmetry_space_group_name_H-M 'P 21 21 21'
_symmetry_Int_Tables_number 19
_refine_ls_R_factor_all 0.033
loop_
_symmetry_equiv_pos_site_id
_symmetry_equiv_pos_as_xyz
1 '-x, y+1/2, -z+1/2'
2 'x+1/2, -y+1/2, -z'
3 '-x+1/2, -y, z+1/2'
4 'x, y, z'
loop_
_atom_type_symbol
_atom_type_oxidation_number
Na1+ 1
Ba2+ 2
Nd3+ 3
Ge4+ 4
O2- -2
loop_
_atom_site_label
_atom_site_type_symbol
_atom_site_symmetry_multiplicity
_atom_site_Wyckoff_symbol
_atom_site_fract_x
_atom_site_fract_y
_atom_site_fract_z
_atom_site_B_iso_or_equiv
_atom_site_occupancy
_atom_site_attached_hydrogens
Na1 Na1+ 4 a 0.0656(10) 0.2821(5) 0.1111(5) 1.65(1) 1. 0
Ba1 Ba2+ 4 a 0.3943(2) 0.38465(5) 0.58238(5) 0.92(1) 1. 0
Nd1 Nd3+ 4 a 0.3815(1) 0.03475(5) 0.64069(4) 0.70(1) 1. 0
Ge1 Ge4+ 4 a 0.0984(3) 0.35800(9) 0.86176(9) 0.63(2) 1. 0
Ge2 Ge4+ 4 a 0.3925(3) 0.29611(9) 0.31268(9) 0.62(2) 1. 0
Ge3 Ge4+ 4 a 0.1031(3) 0.08654(9) 0.88192(8) 0.59(2) 1. 0
O1 O2- 4 a 0.3716(17) 0.3800(7) 0.8138(6) 1.0(2) 1. 0
O2 O2- 4 a 0.9626(15) 0.4576(8) 0.9373(7) 1.3(2) 1. 0
O3 O2- 4 a 0.3897(19) 0.1677(7) 0.2379(6) 1.2(2) 1. 0
O4 O2- 4 a 0.3841(19) 0.4017(7) 0.2142(6) 1.0(2) 1. 0
O5 O2- 4 a 0.1412(17) 0.1952(8) 0.6159(7) 1.2(2) 1. 0
O6 O2- 4 a 0.1102(20) 0.2271(6) 0.9380(6) 1.1(2) 1. 0
O7 O2- 4 a 0.9970(15) 0.4869(8) 0.5309(7) 1.1(2) 1. 0
O8 O2- 4 a 0.1473(15) 0.3098(8) 0.3820(7) 1.0(2) 1. 0
O9 O2- 4 a 0.3633(16) 0.0607(7) 0.8214(6) 0.9(2) 1. 0
#End of TTdata_39474-ICSD