
#(C) 2019 by FIZ Karlsruhe - Leibniz Institute for Information Infrastructure.  All rights reserved.
data_39491-ICSD
_database_code_ICSD 39491
_audit_creation_date 1992-08-20
_audit_update_record 2012-02-01
_chemical_name_systematic 'Sodium zinc bis(catena-phosphate(V)) hydroxide'
_chemical_formula_structural 'Na Zn P2 O6 O H'
_chemical_formula_sum 'H1 Na1 O7 P2 Zn1'
_chemical_name_structure_type NaZnH(P2O7)
_exptl_crystal_density_diffrn 3.39
_publ_section_title 'Crystal structure of Na Zn (P2 O6 (O H))'
loop_
_citation_id
_citation_journal_full
_citation_year
_citation_journal_volume
_citation_page_first
_citation_page_last
_citation_journal_id_ASTM
primary Kristallografiya 1991 36 1151 1154 KRISAJ
loop_
_publ_author_name
'Simonov, M.A.'
'Karpov, O.G.'
'Dimitrova, O.V.'
'Strelkova, E.E.'
_cell_length_a 6.505(5)
_cell_length_b 6.668(5)
_cell_length_c 6.504(3)
_cell_angle_alpha 96.11(5)
_cell_angle_beta 92.05(5)
_cell_angle_gamma 66.87(5)
_cell_volume 257.96
_cell_formula_units_Z 2
_symmetry_space_group_name_H-M 'P -1'
_symmetry_Int_Tables_number 2
_refine_ls_R_factor_all 0.064
loop_
_symmetry_equiv_pos_site_id
_symmetry_equiv_pos_as_xyz
1 '-x, -y, -z'
2 'x, y, z'
loop_
_atom_type_symbol
_atom_type_oxidation_number
Zn2+ 2
P5+ 5
Na1+ 1
O2- -2
H1+ 1
loop_
_atom_site_label
_atom_site_type_symbol
_atom_site_symmetry_multiplicity
_atom_site_Wyckoff_symbol
_atom_site_fract_x
_atom_site_fract_y
_atom_site_fract_z
_atom_site_B_iso_or_equiv
_atom_site_occupancy
_atom_site_attached_hydrogens
Zn1 Zn2+ 2 i 0.2180(1) 0.3792(1) 0.1469(1) 0.41(1) 1. 0
P1 P5+ 2 i 0.3334(2) 0.8628(2) 0.1216(2) 0.31(2) 1. 0
P2 P5+ 2 i 0.7560(2) 0.7191(2) 0.3579(2) 0.26(2) 1. 0
Na1 Na1+ 2 i 0.7852(9) 0.2437(6) 0.3533(7) 2.7(1) 1. 0
O1 O2- 2 i 0.5476(7) 0.2523(7) 0.0780(4) 0.60(7) 1. 0
O2 O2- 2 i 0.2268(7) 0.7191(7) 0.2114(7) 0.66(7) 1. 0
O3 O2- 2 i 0.5136(7) 0.8779(7) 0.2888(7) 0.53(6) 1. 0
O4 O2- 2 i 0.1652(7) 0.0958(7) 0.1145(7) 0.70(7) 1. 0
O5 O2- 2 i 0.8815(7) 0.8705(7) 0.4118(7) 0.55(6) 1. 0
O6 O2- 2 i 0.8646(7) 0.5523(7) 0.1718(6) 0.44(6) 1. 0
O7 O2- 2 i 0.2748(8) 0.3925(7) 0.4621(6) 0.66(7) 1. 0
H1 H1+ 2 i 0.98(2) 0.89(2) 0.47(2) 2.(1) 1. 0
#End of TTdata_39491-ICSD