
#(C) 2019 by FIZ Karlsruhe - Leibniz Institute for Information Infrastructure.  All rights reserved.
data_39590-ICSD
_database_code_ICSD 39590
_audit_creation_date 1993-08-22
_audit_update_record 2014-08-01
_chemical_name_systematic 'Sodium potassium hexafluorostannate'
_chemical_formula_structural 'Na K (Sn F6)'
_chemical_formula_sum 'F6 K1 Na1 Sn1'
_chemical_name_structure_type KNaSnF6
_exptl_crystal_density_diffrn 3.4
_publ_section_title 'Crystal structure of NaKSnF6'
loop_
_citation_id
_citation_journal_full
_citation_year
_citation_journal_volume
_citation_page_first
_citation_page_last
_citation_journal_id_ASTM
primary 'Koordinatsionnaya Khimiya' 1992 18 129 132 KOKHDC
loop_
_publ_author_name
'Gerasimenko, A.V.'
'Ivanov, S.B.'
'Antokhina, T.F.'
'Sergienko, V.I.'
_cell_length_a 11.800(2)
_cell_length_b 6.000(1)
_cell_length_c 8.125(1)
_cell_angle_alpha 90.
_cell_angle_beta 90.
_cell_angle_gamma 90.
_cell_volume 575.25
_cell_formula_units_Z 4
_symmetry_space_group_name_H-M 'P n a 21'
_symmetry_Int_Tables_number 33
_refine_ls_R_factor_all 0.023
loop_
_symmetry_equiv_pos_site_id
_symmetry_equiv_pos_as_xyz
1 'x+1/2, -y+1/2, z'
2 '-x+1/2, y+1/2, z+1/2'
3 '-x, -y, z+1/2'
4 'x, y, z'
loop_
_atom_type_symbol
_atom_type_oxidation_number
Sn4+ 4
K1+ 1
Na1+ 1
F1- -1
loop_
_atom_site_label
_atom_site_type_symbol
_atom_site_symmetry_multiplicity
_atom_site_Wyckoff_symbol
_atom_site_fract_x
_atom_site_fract_y
_atom_site_fract_z
_atom_site_B_iso_or_equiv
_atom_site_occupancy
_atom_site_attached_hydrogens
Sn1 Sn4+ 4 a 0.13719(1) 0.04873(3) 0 0.923(8) 1. 0
K1 K1+ 4 a 0.0422(1) 0.5362(1) 0.2562(1) 1.84(3) 1. 0
Na1 Na1+ 4 a 0.1495(1) 0.0527(2) 0.4997(5) 1.33(4) 1. 0
F1 F1- 4 a 0.3719(2) 0.6451(5) 0.2705(3) 1.93(5) 1. 0
F2 F1- 4 a 0.2191(3) 0.4000(5) 0.4571(4) 2.10(5) 1. 0
F3 F1- 4 a 0.6407(3) 0.5468(5) 0.2306(4) 1.94(5) 1. 0
F4 F1- 4 a -.0077(2) 0.2075(4) 0.0363(3) 1.46(5) 1. 0
F5 F1- 4 a 0.2095(3) 0.3276(4) 0.0614(4) 2.13(5) 1. 0
F6 F1- 4 a 0.4556(3) 0.2812(4) 0.4583(3) 1.73(5) 1. 0
#End of TTdata_39590-ICSD