
#(C) 2019 by FIZ Karlsruhe - Leibniz Institute for Information Infrastructure.  All rights reserved.
data_39605-ICSD
_database_code_ICSD 39605
_audit_creation_date 1993-08-22
_audit_update_record 2006-04-01
_chemical_name_systematic
'Sodium iron phosphate(V) fluoride oxide (4.5/1/2/0.5/0.5)'
_chemical_formula_structural 'Na4.53 Fe (P O4)2 (O.5 F.5)'
_chemical_formula_sum 'F0.5 Fe1 Na4.53 O8.5 P2'
_exptl_crystal_density_diffrn 2.98
_publ_section_title
'Refinement of the atomic structure of ionic conductor Na4+x Fe P2 O8+x F1-x.'
loop_
_citation_id
_citation_journal_full
_citation_year
_citation_journal_volume
_citation_page_first
_citation_page_last
_citation_journal_id_ASTM
primary Kristallografiya 1992 37 1143 1151 KRISAJ
loop_
_publ_author_name
'Maksimov, B.A.'
'Klokova, N.E.'
'Radaev, S.F.'
'Simonov, V.I.'
_cell_length_a 15.520(1)
_cell_length_b 14.820(1)
_cell_length_c 7.119(1)
_cell_angle_alpha 90.
_cell_angle_beta 90.
_cell_angle_gamma 90.
_cell_volume 1637.42
_cell_formula_units_Z 8
_symmetry_space_group_name_H-M 'I b a m'
_symmetry_Int_Tables_number 72
_refine_ls_R_factor_all 0.032
loop_
_symmetry_equiv_pos_site_id
_symmetry_equiv_pos_as_xyz
1 '-x, y, z+1/2'
2 'x, -y, z+1/2'
3 'x, y, -z'
4 '-x, -y, -z'
5 'x, -y, -z+1/2'
6 '-x, y, -z+1/2'
7 '-x, -y, z'
8 'x, y, z'
9 '-x+1/2, y+1/2, z'
10 'x+1/2, -y+1/2, z'
11 'x+1/2, y+1/2, -z+1/2'
12 '-x+1/2, -y+1/2, -z+1/2'
13 'x+1/2, -y+1/2, -z'
14 '-x+1/2, y+1/2, -z'
15 '-x+1/2, -y+1/2, z+1/2'
16 'x+1/2, y+1/2, z+1/2'
loop_
_atom_type_symbol
_atom_type_oxidation_number
Fe2+ 2.97
P5+ 5
F1- -1
O2- -2
Na1+ 1
loop_
_atom_site_label
_atom_site_type_symbol
_atom_site_symmetry_multiplicity
_atom_site_Wyckoff_symbol
_atom_site_fract_x
_atom_site_fract_y
_atom_site_fract_z
_atom_site_B_iso_or_equiv
_atom_site_occupancy
_atom_site_attached_hydrogens
Fe1 Fe2+ 8 e 0.25 0.25 0.25 1.32(1) 1. 0
P1 P5+ 8 j 0.11780(3) 0.12138(3) 0 0.87(1) 1. 0
P2 P5+ 8 j 0.12028(3) 0.37909(3) 0.5 0.96(1) 1. 0
F1 F1- 8 j 0.24551(8) 0.30645(9) 0 1.11(2) 0.5 0
O1 O2- 8 j 0.24551(8) 0.30645(9) 0 1.11(2) 0.5 0
O2 O2- 16 k 0.33281(7) 0.34881(7) 0.3212(1) 1.54(2) 1. 0
O3 O2- 16 k 0.14702(7) 0.32560(8) 0.3223(1) 1.71(2) 1. 0
O4 O2- 8 j 0.1142(1) 0.01842(9) 0 1.93(3) 1. 0
O5 O2- 8 j 0.02188(9) 0.3837(1) 0.5 1.93(3) 1. 0
O6 O2- 8 j 0.1631(1) 0.4717(1) 0.5 2.43(3) 1. 0
O7 O2- 8 j 0.0279(1) 0.1634(1) 0 2.14(3) 1. 0
Na1 Na1+ 8 f 0.23682(7) 0 0.25 1.86(2) 1. 0
Na2 Na1+ 8 g 0 0.26534(7) 0.25 2.09(2) 1. 0
Na3 Na1+ 8 j 0.11589(7) 0.13362(7) 0.5 1.75(2) 0.93(2) 0
Na4 Na1+ 8 j 0.12041(7) 0.38450(8) 0 2.14(2) 0.91(2) 0
Na5 Na1+ 4 a 0 0 0.25 2.89(4) 0.78(1) 0
Na6 Na1+ 4 b 0 0.5 0.25 3.94(8) 0.60(1) 0
#End of TTdata_39605-ICSD