
#(C) 2019 by FIZ Karlsruhe - Leibniz Institute for Information Infrastructure.  All rights reserved.
data_39608-ICSD
_database_code_ICSD 39608
_audit_creation_date 1993-08-22
_chemical_name_systematic 'Sodium lithium catena-vanadate'
_chemical_formula_structural '(Na0.5 Li0.5) (V O3)'
_chemical_formula_sum 'Li0.5 Na0.5 O3 V1'
_chemical_name_structure_type NaKV2O6
_exptl_crystal_density_diffrn 2.97
_publ_section_title 'Refinement of (Na,Li)2V2O6 structure at 293, 600 and 800K.'
loop_
_citation_id
_citation_journal_full
_citation_year
_citation_journal_volume
_citation_page_first
_citation_page_last
_citation_journal_id_ASTM
primary Kristallografiya 1992 37 1139 1142 KRISAJ
loop_
_publ_author_name
'Bubnova, R.S.'
'Filatov, S.K.'
'Ponomarev, V.I.'
_cell_length_a 10.177(4)
_cell_length_b 9.065(3)
_cell_length_c 5.838(3)
_cell_angle_alpha 90.
_cell_angle_beta 108.95(3)
_cell_angle_gamma 90.
_cell_volume 509.39
_cell_formula_units_Z 8
_symmetry_space_group_name_H-M 'C 1 2/c 1'
_symmetry_Int_Tables_number 15
_refine_ls_R_factor_all 0.041
loop_
_symmetry_equiv_pos_site_id
_symmetry_equiv_pos_as_xyz
1 'x, -y, z+1/2'
2 '-x, -y, -z'
3 '-x, y, -z+1/2'
4 'x, y, z'
5 'x+1/2, -y+1/2, z+1/2'
6 '-x+1/2, -y+1/2, -z'
7 '-x+1/2, y+1/2, -z+1/2'
8 'x+1/2, y+1/2, z'
loop_
_atom_type_symbol
_atom_type_oxidation_number
Na1+ 1
Li1+ 1
Na1+ 1
Li1+ 1
V5+ 5
O2- -2
loop_
_atom_site_label
_atom_site_type_symbol
_atom_site_symmetry_multiplicity
_atom_site_Wyckoff_symbol
_atom_site_fract_x
_atom_site_fract_y
_atom_site_fract_z
_atom_site_B_iso_or_equiv
_atom_site_occupancy
_atom_site_attached_hydrogens
Na1 Na1+ 4 e 0.5 0.2069(4) 0.75 . 0.97(3) 0
Li1 Li1+ 4 e 0.5 0.2069 0.75 . 0.03(3) 0
Na2 Na1+ 4 e 0.5 0.4171(19) 0.25 . 0.03(3) 0
Li2 Li1+ 4 e 0.5 0.4171(19) 0.25 . 0.97(3) 0
V1 V5+ 8 f 0.2888(1) 0.0922(1) 0.2447(1) . 1. 0
O1 O2- 8 f 0.1161(4) 0.0950(6) 0.1476(7) . 1. 0
O2 O2- 8 f 0.3503(5) 0.2598(5) 0.2968(8) . 1. 0
O3 O2- 8 f 0.3562(4) -.0022(5) 0.0310(6) . 1. 0
loop_
_atom_site_aniso_label
_atom_site_aniso_type_symbol
_atom_site_aniso_B_11
_atom_site_aniso_B_22
_atom_site_aniso_B_33
_atom_site_aniso_B_12
_atom_site_aniso_B_13
_atom_site_aniso_B_23
Na1 Na1+ 2.02 2.22 1.75 0 -.02 0
Li1 Li1+ 2.02 2.22 1.75 0 -.02 0
Na2 Na1+ 1.45 3.4 2.81 0 -.95 0
Li2 Li1+ 1.45 3.4 2.81 0 -.95 0
V1 V5+ 0.8 0.64 0.87 -.06 -.25 0.06
O1 O2- 0.99 1.43 2.77 0.06 -.3 0.05
O2 O2- 2.38 2.27 1.02 -.75 -.71 -.43
O3 O2- 1.26 1.1 2.46 0.14 -.42 -.45
#End of TTdata_39608-ICSD