
#(C) 2019 by FIZ Karlsruhe - Leibniz Institute for Information Infrastructure.  All rights reserved.
data_39610-ICSD
_database_code_ICSD 39610
_audit_creation_date 1993-08-22
_chemical_name_systematic 'Sodium lithium catena-vanadate (.5/.5/1)'
_chemical_formula_structural '(Na0.49 Li0.51) (V O3)'
_chemical_formula_sum 'Li0.51 Na0.49 O3 V1'
_chemical_name_structure_type NaKV2O6
_exptl_crystal_density_diffrn 2.84
_cell_measurement_temperature 800.
_publ_section_title 'Refinement of (Na,Li)2V2O6 structure at 293, 600 and 800K.'
loop_
_citation_id
_citation_journal_full
_citation_year
_citation_journal_volume
_citation_page_first
_citation_page_last
_citation_journal_id_ASTM
primary Kristallografiya 1992 37 1139 1142 KRISAJ
loop_
_publ_author_name
'Bubnova, R.S.'
'Filatov, S.K.'
'Ponomarev, V.I.'
_cell_length_a 10.318(6)
_cell_length_b 9.284(6)
_cell_length_c 5.865(4)
_cell_angle_alpha 90.
_cell_angle_beta 108.53(2)
_cell_angle_gamma 90.
_cell_volume 532.7
_cell_formula_units_Z 8
_symmetry_space_group_name_H-M 'C 1 2/c 1'
_symmetry_Int_Tables_number 15
_refine_ls_R_factor_all 0.054
loop_
_symmetry_equiv_pos_site_id
_symmetry_equiv_pos_as_xyz
1 'x, -y, z+1/2'
2 '-x, -y, -z'
3 '-x, y, -z+1/2'
4 'x, y, z'
5 'x+1/2, -y+1/2, z+1/2'
6 '-x+1/2, -y+1/2, -z'
7 '-x+1/2, y+1/2, -z+1/2'
8 'x+1/2, y+1/2, z'
loop_
_atom_type_symbol
_atom_type_oxidation_number
Na1+ 1
Li1+ 1
Na1+ 1
Li1+ 1
V5+ 5
O2- -2
loop_
_atom_site_label
_atom_site_type_symbol
_atom_site_symmetry_multiplicity
_atom_site_Wyckoff_symbol
_atom_site_fract_x
_atom_site_fract_y
_atom_site_fract_z
_atom_site_B_iso_or_equiv
_atom_site_occupancy
_atom_site_attached_hydrogens
Na1 Na1+ 4 e 0.5 0.2087(10) 0.75 . 0.75(3) 0
Li1 Li1+ 4 e 0.5 0.2087(10) 0.75 . 0.25(3) 0
Na2 Na1+ 4 e 0.5 0.4117(22) 0.25 . 0.23(4) 0
Li2 Li1+ 4 e 0.5 0.4117(22) 0.25 . 0.77(4) 0
V1 V5+ 8 f 0.2910(2) 0.0902(2) 0.2524(3) . 1. 0
O1 O2- 8 f 0.1220(7) 0.096(1) 0.1526(12) . 1. 0
O2 O2- 8 f 0.3546(9) 0.2516(9) 0.3076(16) . 1. 0
O3 O2- 8 f 0.3551(7) -.0018(9) 0.0394(12) . 1. 0
loop_
_atom_site_aniso_label
_atom_site_aniso_type_symbol
_atom_site_aniso_B_11
_atom_site_aniso_B_22
_atom_site_aniso_B_33
_atom_site_aniso_B_12
_atom_site_aniso_B_13
_atom_site_aniso_B_23
Na1 Na1+ 6.27 9.24 4.26 0 0.3 0
Li1 Li1+ 6.27 9.24 4.26 0 0.3 0
Na2 Na1+ 5.63 8.47 6.92 0 -2.98 0
Li2 Li1+ 5.63 8.47 6.92 0 -2.98 0
V1 V5+ 2.89 3.75 2.24 -.06 -.99 0.09
O1 O2- 3.64 3.55 7.91 0.55 -.71 0.02
O2 O2- 6.92 7.53 4.91 -1.5 -2.19 0.55
O3 O2- 3.79 3.72 6.85 0.1 -1.35 -1.69
#End of TTdata_39610-ICSD