
#(C) 2019 by FIZ Karlsruhe - Leibniz Institute for Information Infrastructure.  All rights reserved.
data_39655-ICSD
_database_code_ICSD 39655
_audit_creation_date 1993-08-22
_audit_update_record 2014-08-01
_chemical_name_systematic 'Sodium rubidium hexafluorostannate'
_chemical_formula_structural 'Na Rb (Sn F6)'
_chemical_formula_sum 'F6 Na1 Rb1 Sn1'
_chemical_name_structure_type NH4MnFeF6
_exptl_crystal_density_diffrn 3.86
_publ_section_title 'Crystal structures of Na Rb Sn F6 and Na Cs Sn F6.'
loop_
_citation_id
_citation_journal_full
_citation_year
_citation_journal_volume
_citation_page_first
_citation_page_last
_citation_journal_id_ASTM
primary 'Koordinatsionnaya Khimiya' 1992 18 1139 1143 KOKHDC
loop_
_publ_author_name
'Gerasimenko, A.V.'
'Ivanov, S.B.'
'Antokhina, T.F.'
'Sergienko, V.I.'
_cell_length_a 8.156(1)
_cell_length_b 13.129(2)
_cell_length_c 10.958(2)
_cell_angle_alpha 90.
_cell_angle_beta 90.
_cell_angle_gamma 90.
_cell_volume 1173.38
_cell_formula_units_Z 8
_symmetry_space_group_name_H-M 'P b c n'
_symmetry_Int_Tables_number 60
_refine_ls_R_factor_all 0.029
loop_
_symmetry_equiv_pos_site_id
_symmetry_equiv_pos_as_xyz
1 'x, -y, z+1/2'
2 '-x+1/2, y+1/2, z'
3 'x+1/2, y+1/2, -z+1/2'
4 '-x, -y, -z'
5 '-x, y, -z+1/2'
6 'x+1/2, -y+1/2, -z'
7 '-x+1/2, -y+1/2, z+1/2'
8 'x, y, z'
loop_
_atom_type_symbol
_atom_type_oxidation_number
Sn4+ 4
Rb1+ 1
Na1+ 1
F1- -1
loop_
_atom_site_label
_atom_site_type_symbol
_atom_site_symmetry_multiplicity
_atom_site_Wyckoff_symbol
_atom_site_fract_x
_atom_site_fract_y
_atom_site_fract_z
_atom_site_B_iso_or_equiv
_atom_site_occupancy
_atom_site_attached_hydrogens
Sn1 Sn4+ 8 d 0.25042(4) 0.86525(2) 0.07458(3) 1.124(8) 1. 0
Rb1 Rb1+ 4 c 0.5 0.12621(9) 0.25 2.65(4) 1. 0
Rb2 Rb1+ 4 c 0 0.07537(7) 0.25 2.04(3) 1. 0
Na1 Na1+ 8 d 0.2469(3) 0.3586(2) 0.4237(2) 1.52(7) 1. 0
F1 F1- 8 d 0.2117(5) 0.4247(3) 0.2359(3) 2.4(1) 1. 0
F2 F1- 8 d 0.2161(4) 0.1843(3) 0.4073(3) 2.1(1) 1. 0
F3 F1- 8 d 0.4797(4) 0.1153(4) 0.5302(4) 2.4(1) 1. 0
F4 F1- 8 d 0.0211(4) 0.1590(4) 0.6152(4) 2.4(1) 1. 0
F5 F1- 8 d 0.1925(5) -.0012(3) 0.5202(4) 2.9(1) 1. 0
F6 F1- 8 d 0.2908(4) 0.2746(3) 0.6257(4) 2.2(1) 1. 0
#End of TTdata_39655-ICSD