
#(C) 2019 by FIZ Karlsruhe - Leibniz Institute for Information Infrastructure.  All rights reserved.
data_39671-ICSD
_database_code_ICSD 39671
_audit_creation_date 1994-01-19
_chemical_name_systematic
'Sodium iron(III) oxide fluoride phosphate (8.8/2/1/1/4)'
_chemical_formula_structural 'Na8.81 Fe2 O F (P O4)4'
_chemical_formula_sum 'F1 Fe2 Na8.81 O17 P4'
_exptl_crystal_density_diffrn 1.46
_cell_measurement_temperature 623.
_publ_section_title
'Incommensurate modulation in the structure of Na9(Fe2(PO4)4(O,F)2) at 623 K.'
loop_
_citation_id
_citation_journal_full
_citation_year
_citation_journal_volume
_citation_page_first
_citation_page_last
_citation_journal_id_ASTM
primary Kristallografiya 1992 37 1152 1163 KRISAJ
loop_
_publ_author_name
'Maksimov, B.A.'
'Tamazyan, R.A.'
'Klokova, N.E.'
'Petrzhichek, V.'
'Popov, A.N.'
'Simonov, V.I.'
_cell_length_a 15.645(1)
_cell_length_b 14.866(1)
_cell_length_c 7.144(1)
_cell_angle_alpha 90.
_cell_angle_beta 90.
_cell_angle_gamma 90.
_cell_volume 1661.54
_cell_formula_units_Z 2
_symmetry_space_group_name_H-M 'I b a m'
_symmetry_Int_Tables_number 72
_refine_ls_R_factor_all 0.044
loop_
_symmetry_equiv_pos_site_id
_symmetry_equiv_pos_as_xyz
1 '-x, y, z+1/2'
2 'x, -y, z+1/2'
3 'x, y, -z'
4 '-x, -y, -z'
5 'x, -y, -z+1/2'
6 '-x, y, -z+1/2'
7 '-x, -y, z'
8 'x, y, z'
9 '-x+1/2, y+1/2, z'
10 'x+1/2, -y+1/2, z'
11 'x+1/2, y+1/2, -z+1/2'
12 '-x+1/2, -y+1/2, -z+1/2'
13 'x+1/2, -y+1/2, -z'
14 '-x+1/2, y+1/2, -z'
15 '-x+1/2, -y+1/2, z+1/2'
16 'x+1/2, y+1/2, z+1/2'
loop_
_atom_type_symbol
_atom_type_oxidation_number
Fe3+ 3
P5+ 5
F1- -1
O2- -2
Na1+ 1
loop_
_atom_site_label
_atom_site_type_symbol
_atom_site_symmetry_multiplicity
_atom_site_Wyckoff_symbol
_atom_site_fract_x
_atom_site_fract_y
_atom_site_fract_z
_atom_site_B_iso_or_equiv
_atom_site_occupancy
_atom_site_attached_hydrogens
Fe1 Fe3+ 8 e 0.25 0.25 0.25 1.97 0.5 0
P1 P5+ 8 j 0.1198(1) 0.1214(1) 0 1.54 1. 0
F1 F1- 8 j 0.25 0.3076(1) 0 1.64 0.25 0
O1 O2- 8 j 0.25 0.3076(1) 0 1.64 0.25 0
O2 O2- 16 k 0.1579(1) 0.1634(1) 0.1758(2) 3.32 1. 0
O3 O2- 8 j 0.1386(2) 0.0230(1) 0 4.07 1. 0
O4 O2- 8 j 0.0255(1) 0.1387(2) 0 3.88 1. 0
Na1 Na1+ 8 f 0.25 0 0.25 4.55 0.5 0
Na2 Na1+ 8 g 0 0.25 0.25 4.38 0.5 0
Na3 Na1+ 8 j 0.1184(1) 0.1264(1) 0.5 3.69 0.868(8) 0
Na4 Na1+ 4 a 0 0 0.25 3.97 0.67(1) 0
#End of TTdata_39671-ICSD