
#(C) 2019 by FIZ Karlsruhe - Leibniz Institute for Information Infrastructure.  All rights reserved.
data_39696-ICSD
_database_code_ICSD 39696
_audit_creation_date 1994-02-04
_audit_update_record 1999-01-19
_chemical_name_systematic
'Sodium calcium yttrium erbium fluoride (1.2/0.1/1.3/0.2/6)'
_chemical_formula_structural 'Na1.23 Ca0.12 Y1.28 Er0.24 F6'
_chemical_formula_sum 'Ca0.12 Er0.24 F6 Na1.23 Y1.28'
_chemical_name_structure_type Na1-xCa1-xY1+xF6
_chemical_name_mineral Gagarinite-(Y)
_exptl_crystal_density_diffrn 4.54
_publ_section_title

;
Determination of crystal structure of a new mineral Na1.23 Ca0.12 Y1.28 TR0.24
F6 using Rietveld technique
;
loop_
_citation_id
_citation_journal_full
_citation_year
_citation_journal_volume
_citation_page_first
_citation_page_last
_citation_journal_id_ASTM
primary 'Doklady Akademii Nauk SSSR' 1993 330 713 715 DANKAS
loop_
_publ_author_name
'Kabalov, Yu.K.'
'Sokolova, E.V.'
'Grigor'ev, A.P. (Grigorev, A.P.)'
_cell_length_a 5.9855(5)
_cell_length_b 5.9855(5)
_cell_length_c 3.5469(4)
_cell_angle_alpha 90.
_cell_angle_beta 90.
_cell_angle_gamma 120.
_cell_volume 110.05
_cell_formula_units_Z 1
_symmetry_space_group_name_H-M 'P 63/m'
_symmetry_Int_Tables_number 176
_refine_ls_R_factor_all 0.038
loop_
_symmetry_equiv_pos_site_id
_symmetry_equiv_pos_as_xyz
1 '-x+y, -x, -z+1/2'
2 '-y, x-y, -z+1/2'
3 'x, y, -z+1/2'
4 'x-y, x, -z'
5 'y, -x+y, -z'
6 '-x, -y, -z'
7 'x-y, x, z+1/2'
8 'y, -x+y, z+1/2'
9 '-x, -y, z+1/2'
10 '-x+y, -x, z'
11 '-y, x-y, z'
12 'x, y, z'
loop_
_atom_type_symbol
_atom_type_oxidation_number
Na1+ 1
Y3+ 3
Er3+ 3
Na1+ 1
Ca2+ 2
F1- -1
loop_
_atom_site_label
_atom_site_type_symbol
_atom_site_symmetry_multiplicity
_atom_site_Wyckoff_symbol
_atom_site_fract_x
_atom_site_fract_y
_atom_site_fract_z
_atom_site_B_iso_or_equiv
_atom_site_occupancy
_atom_site_attached_hydrogens
Na1 Na1+ 4 e 0 0 0.069 3.2(6) 0.217 0
Y1 Y3+ 2 d 0.6667 0.3333 0.25 0.96(7) 0.64 0
Er1 Er3+ 2 d 0.6667 0.3333 0.25 0.96(7) 0.12 0
Na2 Na1+ 2 d 0.6667 0.3333 0.25 0.96(7) 0.18 0
Ca1 Ca2+ 2 d 0.6667 0.3333 0.25 0.96(7) 0.06 0
F1 F1- 6 h 0.3092 0.3879 0.25 2.3(2) 1. 0
#End of TTdata_39696-ICSD