
#(C) 2019 by FIZ Karlsruhe - Leibniz Institute for Information Infrastructure.  All rights reserved.
data_39828-ICSD
_database_code_ICSD 39828
_audit_creation_date 1995-10-17
_chemical_name_systematic 'Trisodium gallium octaphosphate(V)'
_chemical_formula_structural 'Na3 Ga (P8 O23)'
_chemical_formula_sum 'Ga1 Na3 O23 P8'
_chemical_name_structure_type Na3AlP8O23
_exptl_crystal_density_diffrn 2.99
_publ_section_title 'Double ultraphosphates Na3 M(III) P8 O23 (M(III)= Ga, Al)'
loop_
_citation_id
_citation_journal_full
_citation_year
_citation_journal_volume
_citation_page_first
_citation_page_last
_citation_journal_id_ASTM
primary 'Izvestiya Akademii Nauk SSSR, Neorganicheskie Materialy' 1993 29 119
120 IVNMAW
loop_
_publ_author_name
'Palkina, K.K.'
'Maksimova, S.I.'
'Chibiskova, N.T.'
'Chudinova, N.N.'
'Karmanovskaya, N.B.'
_cell_length_a 11.884(3)
_cell_length_b 11.884(3)
_cell_length_c 11.884(3)
_cell_angle_alpha 90.
_cell_angle_beta 90.
_cell_angle_gamma 90.
_cell_volume 1678.37
_cell_formula_units_Z 4
_symmetry_space_group_name_H-M 'P 41 3 2'
_symmetry_Int_Tables_number 213
_refine_ls_R_factor_all 0.068
loop_
_symmetry_equiv_pos_site_id
_symmetry_equiv_pos_as_xyz
1 '-z+1/4, y+3/4, x+1/4'
2 'z+1/4, -y+1/4, x+3/4'
3 'z+3/4, y+1/4, -x+1/4'
4 '-z+3/4, -y+3/4, -x+3/4'
5 'y+3/4, x+1/4, -z+1/4'
6 '-y+1/4, x+3/4, z+1/4'
7 'y+1/4, -x+1/4, z+3/4'
8 '-y+3/4, -x+3/4, -z+3/4'
9 'x+1/4, -z+1/4, y+3/4'
10 'x+3/4, z+1/4, -y+1/4'
11 '-x+1/4, z+3/4, y+1/4'
12 '-x+3/4, -z+3/4, -y+3/4'
13 'z+1/2, -x+1/2, -y'
14 '-z+1/2, -x, y+1/2'
15 '-z, x+1/2, -y+1/2'
16 'z, x, y'
17 '-y, z+1/2, -x+1/2'
18 'y+1/2, -z+1/2, -x'
19 '-y+1/2, -z, x+1/2'
20 'y, z, x'
21 '-x+1/2, -y, z+1/2'
22 '-x, y+1/2, -z+1/2'
23 'x+1/2, -y+1/2, -z'
24 'x, y, z'
loop_
_atom_type_symbol
_atom_type_oxidation_number
Ga3+ 3
Na1+ 1
P5+ 5
O2- -2
loop_
_atom_site_label
_atom_site_type_symbol
_atom_site_symmetry_multiplicity
_atom_site_Wyckoff_symbol
_atom_site_fract_x
_atom_site_fract_y
_atom_site_fract_z
_atom_site_B_iso_or_equiv
_atom_site_occupancy
_atom_site_attached_hydrogens
Ga1 Ga3+ 4 a 0.625 0.875 0.125 0.0058 1. 0
Na1 Na1+ 12 d 0.875 0.543(5) 0.207(5) 0.014 1. 0
P1 P5+ 24 e 0.1397(2) 0.1453(1) 0.5688(1) 0.0061 1. 0
P2 P5+ 8 c 0.0190(1) 0.0190(1) 0.0190(1) 0.0054 1. 0
O1 O2- 24 e 0.0380(4) 0.1197(5) 0.6367(4) 0.011 1. 0
O2 O2- 24 e 0.4225(5) 0.0087(4) 0.4059(4) 0.009 1. 0
O3 O2- 12 d 0.875 0.768(5) -.018(5) 0.011 1. 0
O4 O2- 24 e 0.3121(5) 0.0688(5) 0.2369(4) 0.011 1. 0
O5 O2- 8 c 0.0902(4) 0.0902(4) 0.0902(4) 0.009 1. 0
#End of TTdata_39828-ICSD