
#(C) 2019 by FIZ Karlsruhe - Leibniz Institute for Information Infrastructure.  All rights reserved.
data_39848-ICSD
_database_code_ICSD 39848
_audit_creation_date 1995-10-17
_audit_update_record 2010-02-01
_chemical_name_systematic 'Trisodium phyllo-vanado(III)octaphosphate(V)'
_chemical_formula_structural 'Na3 (V P8 O23)'
_chemical_formula_sum 'Na3 O23 P8 V1'
_chemical_name_structure_type Na3AlP8O23
_exptl_crystal_density_diffrn 2.87
_publ_section_title

;
Double ultraphosphates Na3 M P8 O23 (M= Cr, V, Mn, Al, Ga). Synthesis and
crystal structure
;
loop_
_citation_id
_citation_journal_full
_citation_year
_citation_journal_volume
_citation_page_first
_citation_page_last
_citation_journal_id_ASTM
primary 'Zhurnal Neorganicheskoi Khimii' 1994 39 1769 1772 ZNOKAQ
loop_
_publ_author_name
'Chudinova, N.N.'
'Murashova, E.V.'
'Karmanovskaya, N.B.'
_cell_length_a 11.943(3)
_cell_length_b 11.943(3)
_cell_length_c 11.943(3)
_cell_angle_alpha 90.
_cell_angle_beta 90.
_cell_angle_gamma 90.
_cell_volume 1703.49
_cell_formula_units_Z 4
_symmetry_space_group_name_H-M 'P 41 3 2'
_symmetry_Int_Tables_number 213
_refine_ls_R_factor_all 0.028
loop_
_symmetry_equiv_pos_site_id
_symmetry_equiv_pos_as_xyz
1 '-z+1/4, y+3/4, x+1/4'
2 'z+1/4, -y+1/4, x+3/4'
3 'z+3/4, y+1/4, -x+1/4'
4 '-z+3/4, -y+3/4, -x+3/4'
5 'y+3/4, x+1/4, -z+1/4'
6 '-y+1/4, x+3/4, z+1/4'
7 'y+1/4, -x+1/4, z+3/4'
8 '-y+3/4, -x+3/4, -z+3/4'
9 'x+1/4, -z+1/4, y+3/4'
10 'x+3/4, z+1/4, -y+1/4'
11 '-x+1/4, z+3/4, y+1/4'
12 '-x+3/4, -z+3/4, -y+3/4'
13 'z+1/2, -x+1/2, -y'
14 '-z+1/2, -x, y+1/2'
15 '-z, x+1/2, -y+1/2'
16 'z, x, y'
17 '-y, z+1/2, -x+1/2'
18 'y+1/2, -z+1/2, -x'
19 '-y+1/2, -z, x+1/2'
20 'y, z, x'
21 '-x+1/2, -y, z+1/2'
22 '-x, y+1/2, -z+1/2'
23 'x+1/2, -y+1/2, -z'
24 'x, y, z'
loop_
_atom_type_symbol
_atom_type_oxidation_number
V3+ 3
Na1+ 1
P5+ 5
O2- -2
loop_
_atom_site_label
_atom_site_type_symbol
_atom_site_symmetry_multiplicity
_atom_site_Wyckoff_symbol
_atom_site_fract_x
_atom_site_fract_y
_atom_site_fract_z
_atom_site_B_iso_or_equiv
_atom_site_occupancy
_atom_site_attached_hydrogens
V1 V3+ 4 a 0.375 0.375 0.375 0.471(9) 1. 0
Na1 Na1+ 12 d 0.125 0.0430(1) 0.2930(1) 1.23(3) 1. 0
P1 P5+ 24 e 0.1420(1) 0.1456(1) 0.5686 0.55(1) 1. 0
P2 P5+ 8 c 0.01874(5) 0.01874 0.01874 0.503(9) 1. 0
O1 O2- 24 e 0.0406(2) 0.1198(2) 0.6365(2) 0.94(4) 1. 0
O2 O2- 24 e 0.4239(2) 0.0074(2) 0.4044(2) 0.89(4) 1. 0
O3 O2- 12 d 0.125 0.2669(2) 0.5169(2) 1.05(5) 1. 0
O4 O2- 24 e 0.3129(2) 0.0673(2) 0.2371(2) 0.95(4) 1. 0
O5 O2- 8 c 0.0896(2) 0.0896 0.0896 0.97(3) 1. 0
#End of TTdata_39848-ICSD