
#(C) 2019 by FIZ Karlsruhe - Leibniz Institute for Information Infrastructure.  All rights reserved.
data_39845-ICSD
_database_code_ICSD 39845
_audit_creation_date 1995-10-17
_audit_update_record 2015-08-01
_chemical_name_systematic
'Sodium calcium yttrium europium fluoride (1.12/1/0.4/0.6/6)'
_chemical_formula_structural 'Na1.12 (Ca Y0.40 Eu0.60) F6'
_chemical_formula_sum 'Ca1 Eu0.6 F6 Na1.12 Y0.4'
_chemical_name_mineral Gagarinite-(Eu)
_exptl_crystal_density_diffrn 4.49
_publ_section_title

;
Crystal structure of gagarinite from precision X-ray data: structural changes
in the NaCaTRF6-Na1.5TR1.5F6 series
;
loop_
_citation_id
_citation_journal_full
_citation_year
_citation_journal_volume
_citation_page_first
_citation_page_last
_citation_journal_id_ASTM
primary Kristallografiya 1994 39 1009 1014 KRISAJ
loop_
_publ_author_name
'Frank-Kamenetskaya, O.V.'
'Fundamenskii, V.S.'
'Tsytsenko, A.K.'
'Frank-Kamenetskii, V.A.'
_cell_length_a 6.0403(1)
_cell_length_b 6.0403(1)
_cell_length_c 3.5899(1)
_cell_angle_alpha 90.
_cell_angle_beta 90.
_cell_angle_gamma 120.
_cell_volume 113.43
_cell_formula_units_Z 1
_symmetry_space_group_name_H-M 'P 63/m'
_symmetry_Int_Tables_number 176
_refine_ls_R_factor_all 0.012
loop_
_symmetry_equiv_pos_site_id
_symmetry_equiv_pos_as_xyz
1 '-x+y, -x, -z+1/2'
2 '-y, x-y, -z+1/2'
3 'x, y, -z+1/2'
4 'x-y, x, -z'
5 'y, -x+y, -z'
6 '-x, -y, -z'
7 'x-y, x, z+1/2'
8 'y, -x+y, z+1/2'
9 '-x, -y, z+1/2'
10 '-x+y, -x, z'
11 '-y, x-y, z'
12 'x, y, z'
loop_
_atom_type_symbol
_atom_type_oxidation_number
Ca2+ 2
Eu3+ 3
Y3+ 3
Na1+ 1
F1- -1
loop_
_atom_site_label
_atom_site_type_symbol
_atom_site_symmetry_multiplicity
_atom_site_Wyckoff_symbol
_atom_site_fract_x
_atom_site_fract_y
_atom_site_fract_z
_atom_site_B_iso_or_equiv
_atom_site_occupancy
_atom_site_attached_hydrogens
Ca1 Ca2+ 2 d 0.6667 0.3333 0.25 . 0.498(6) 0
Eu1 Eu3+ 2 d 0.6667 0.3333 0.25 . 0.299(4) 0
Y1 Y3+ 2 d 0.6667 0.3333 0.25 . 0.198(4) 0
Na1 Na1+ 4 e 0 0 0.962(2) . 0.189(3) 0
Na2 Na1+ 4 e 0 0 0.284 . 0.090(3) 0
F1 F1- 6 h 0.3089(2) 0.3932(2) 0.25 . 1. 0
loop_
_atom_site_aniso_label
_atom_site_aniso_type_symbol
_atom_site_aniso_B_11
_atom_site_aniso_B_22
_atom_site_aniso_B_33
_atom_site_aniso_B_12
_atom_site_aniso_B_13
_atom_site_aniso_B_23
Ca1 Ca2+ 0.61(1) 0.61 0.63(1) 0.31 0 0
Eu1 Eu3+ 0.61(1) 0.61 0.63(1) 0.31 0 0
Y1 Y3+ 0.61(1) 0.61 0.63(1) 0.31 0 0
Na1 Na1+ 0.88(6) 0.88 1.48(30) 0.44 0 0
Na2 Na1+ 0.61(9) 0.61 1.30(38) 0.3 0 0
F1 F1- 1.00(2) 1.07(2) 1.32(3) 0.58(2) 0 0
#End of TTdata_39845-ICSD