
#(C) 2019 by FIZ Karlsruhe - Leibniz Institute for Information Infrastructure.  All rights reserved.
data_39904-ICSD
_database_code_ICSD 39904
_audit_creation_date 1996-10-14
_audit_update_record 2015-02-01
_chemical_name_systematic 'Sodium tecto-alumosilicate hydrate *'
_chemical_formula_structural 'Na2 (Si (Si0.5 Al0.5)4 O10) (H2 O)2'
_chemical_formula_sum 'H4 Al2 Na2 O12 Si3'
_chemical_name_structure_type Gonnardite-frame#Na2Al2Si3O10(H2O)2
_chemical_name_mineral Tetranatrolite
_exptl_crystal_density_diffrn 2.25
_publ_section_title

;
Crystal structure of maximum - ordered tetranatrolite Na2(Si(Si0.5 Al0.5)4
O10) 2(H2 O)
;
loop_
_citation_id
_citation_journal_full
_citation_year
_citation_journal_volume
_citation_page_first
_citation_page_last
_citation_journal_id_ASTM
primary Kristallografiya 1995 40 812 815 KRISAJ
loop_
_publ_author_name
'Rastsvetaeva, R.K.'
_cell_length_a 13.070(9)
_cell_length_b 13.070(9)
_cell_length_c 6.580(6)
_cell_angle_alpha 90.
_cell_angle_beta 90.
_cell_angle_gamma 90.
_cell_volume 1124.03
_cell_formula_units_Z 4
_symmetry_space_group_name_H-M 'I -4 2 d'
_symmetry_Int_Tables_number 122
_refine_ls_R_factor_all 0.056
loop_
_symmetry_equiv_pos_site_id
_symmetry_equiv_pos_as_xyz
1 '-y, -x+1/2, z+1/4'
2 'y, -x, -z'
3 'y, x+1/2, z+1/4'
4 '-y, x, -z'
5 'x, -y+1/2, -z+1/4'
6 '-x, -y, z'
7 '-x, y+1/2, -z+1/4'
8 'x, y, z'
9 '-y+1/2, -x, z+3/4'
10 'y+1/2, -x+1/2, -z+1/2'
11 'y+1/2, x, z+3/4'
12 '-y+1/2, x+1/2, -z+1/2'
13 'x+1/2, -y, -z+3/4'
14 '-x+1/2, -y+1/2, z+1/2'
15 '-x+1/2, y, -z+3/4'
16 'x+1/2, y+1/2, z+1/2'
loop_
_atom_type_symbol
_atom_type_oxidation_number
Si4+ 4
Al3+ 3
Na1+ 1
O2- -2
H1+ 1
loop_
_atom_site_label
_atom_site_type_symbol
_atom_site_symmetry_multiplicity
_atom_site_Wyckoff_symbol
_atom_site_fract_x
_atom_site_fract_y
_atom_site_fract_z
_atom_site_B_iso_or_equiv
_atom_site_occupancy
_atom_site_attached_hydrogens
Si1 Si4+ 4 a 0 0 0 0.7(1) 1. 0
Si2 Si4+ 16 e 0.0576(2) 0.1338(2) 0.6209(6) 0.7(1) 0.5 0
Al1 Al3+ 16 e 0.0576(2) 0.1338(2) 0.6209(6) 0.7(1) 0.5 0
Na1 Na1+ 8 d 0.6895(5) 0.25 0.125 2.1(1) 1. 0
O1 O2- 8 d 0.3878(9) 0.25 0.125 1.2(2) 1. 0
O2 O2- 16 e 0.1381(8) 0.0589(7) 0.487(2) 1.9(2) 1. 0
O3 O2- 16 e 0.0448(7) 0.0910(6) 0.864(2) 1.6(2) 1. 0
O4 O2- 8 d 0.132(1) 0.25 0.125 2.5(3) 1. 0
H1 H1+ 16 e 0.07(1) 0.21(1) 0.03(3) 3.(3) 1. 0
#End of TTdata_39904-ICSD