
#(C) 2019 by FIZ Karlsruhe - Leibniz Institute for Information Infrastructure.  All rights reserved.
data_39959-ICSD
_database_code_ICSD 39959
_audit_creation_date 1997-05-13
_audit_update_record 2009-02-01
_chemical_name_systematic 'Trisodium bis(phosphato(V))trifluorodialuminate'
_chemical_formula_structural 'Na3 (Al2 F3 (P O4)2)'
_chemical_formula_sum 'Al2 F3 Na3 O8 P2'
_chemical_name_structure_type Al2Na3-x(PO4)2F3
_exptl_crystal_density_diffrn 3.06
_publ_section_title
'Anionic framework of a mixed type in Na3 (Al2 F3 (P O4)2) crystal structure'
loop_
_citation_id
_citation_journal_full
_citation_year
_citation_journal_volume
_citation_page_first
_citation_page_last
_citation_journal_id_ASTM
primary Kristallografiya 1996 41 663 668 KRISAJ
loop_
_publ_author_name
'Yakubovich, O.V.'
'Mel'nikov, O.K. (Melnikov, O.K.)'
_cell_length_a 6.211(2)
_cell_length_b 6.211(2)
_cell_length_c 10.407(2)
_cell_angle_alpha 90.
_cell_angle_beta 90.
_cell_angle_gamma 90.
_cell_volume 401.47
_cell_formula_units_Z 2
_symmetry_space_group_name_H-M 'I 4/m m m'
_symmetry_Int_Tables_number 139
_refine_ls_R_factor_all 0.019
loop_
_symmetry_equiv_pos_site_id
_symmetry_equiv_pos_as_xyz
1 'y, x, -z'
2 '-y, -x, -z'
3 '-y, x, -z'
4 'y, -x, -z'
5 '-x, y, -z'
6 'x, -y, -z'
7 'x, y, -z'
8 '-x, -y, -z'
9 '-y, -x, z'
10 'y, x, z'
11 'y, -x, z'
12 '-y, x, z'
13 'x, -y, z'
14 '-x, y, z'
15 '-x, -y, z'
16 'x, y, z'
17 'y+1/2, x+1/2, -z+1/2'
18 '-y+1/2, -x+1/2, -z+1/2'
19 '-y+1/2, x+1/2, -z+1/2'
20 'y+1/2, -x+1/2, -z+1/2'
21 '-x+1/2, y+1/2, -z+1/2'
22 'x+1/2, -y+1/2, -z+1/2'
23 'x+1/2, y+1/2, -z+1/2'
24 '-x+1/2, -y+1/2, -z+1/2'
25 '-y+1/2, -x+1/2, z+1/2'
26 'y+1/2, x+1/2, z+1/2'
27 'y+1/2, -x+1/2, z+1/2'
28 '-y+1/2, x+1/2, z+1/2'
29 'x+1/2, -y+1/2, z+1/2'
30 '-x+1/2, y+1/2, z+1/2'
31 '-x+1/2, -y+1/2, z+1/2'
32 'x+1/2, y+1/2, z+1/2'
loop_
_atom_type_symbol
_atom_type_oxidation_number
Al3+ 3
P5+ 5
O2- -2
F1- -1
Na1+ 1
loop_
_atom_site_label
_atom_site_type_symbol
_atom_site_symmetry_multiplicity
_atom_site_Wyckoff_symbol
_atom_site_fract_x
_atom_site_fract_y
_atom_site_fract_z
_atom_site_B_iso_or_equiv
_atom_site_occupancy
_atom_site_attached_hydrogens
Al1 Al3+ 4 e 0 0 0.17957(5) 0.31(1) 1. 0
P1 P5+ 4 d 0 0.5 0.25 0.28(1) 1. 0
O1 O2- 16 n 0 0.30272(10) 0.16183(5) 0.71(1) 1. 0
F1 F1- 2 a 0 0 0 0.52(1) 1. 0
F2 F1- 4 e 0 0 0.64517(10) 0.87(1) 1. 0
Na1 Na1+ 8 h 0.2774(6) 0.2774 0 2.73(8) 0.38 0
Na2 Na1+ 16 l 0.753(2) 0.645(2) 0 3.8(3) 0.13 0
Na3 Na1+ 8 j 0.785(1) 0.5 0 2.1(2) 0.11 0
#End of TTdata_39959-ICSD