
#(C) 2019 by FIZ Karlsruhe - Leibniz Institute for Information Infrastructure.  All rights reserved.
data_401030-ICSD
_database_code_ICSD 401030
_audit_creation_date 1995-10-17
_chemical_name_systematic 'Sodium calcium aluminium diphosphate(V) (27/3/5/12)'
_chemical_formula_structural 'Na27 Ca3 Al5 (P2 O7)12'
_chemical_formula_sum 'Al5 Ca3 Na27 O84 P24'
_exptl_crystal_density_diffrn 2.84
_publ_section_title

;
Crystal structure of aluminium calcium sodium diphosphate, Na27 Ca3 Al5 (P2
O7)12
;
loop_
_citation_id
_citation_journal_full
_citation_year
_citation_journal_volume
_citation_page_first
_citation_page_last
_citation_journal_id_ASTM
primary 'Zeitschrift fuer Kristallographie' 1995 210 298 299 ZEKRDZ
loop_
_publ_author_name
'Alkemper, J.'
'Paulus, H.'
'Fuess, H.'
_cell_length_a 25.4380(80)
_cell_length_b 25.4380(80)
_cell_length_c 9.271(3)
_cell_angle_alpha 90.
_cell_angle_beta 90.
_cell_angle_gamma 120.
_cell_volume 5195.45
_cell_formula_units_Z 3
_symmetry_space_group_name_H-M 'R -3 H'
_symmetry_Int_Tables_number 148
_refine_ls_R_factor_all 0.035
loop_
_symmetry_equiv_pos_site_id
_symmetry_equiv_pos_as_xyz
1 'x-y, x, -z'
2 'y, -x+y, -z'
3 '-x, -y, -z'
4 '-x+y, -x, z'
5 '-y, x-y, z'
6 'x, y, z'
7 'x-y+2/3, x+1/3, -z+1/3'
8 'y+2/3, -x+y+1/3, -z+1/3'
9 '-x+2/3, -y+1/3, -z+1/3'
10 '-x+y+2/3, -x+1/3, z+1/3'
11 '-y+2/3, x-y+1/3, z+1/3'
12 'x+2/3, y+1/3, z+1/3'
13 'x-y+1/3, x+2/3, -z+2/3'
14 'y+1/3, -x+y+2/3, -z+2/3'
15 '-x+1/3, -y+2/3, -z+2/3'
16 '-x+y+1/3, -x+2/3, z+2/3'
17 '-y+1/3, x-y+2/3, z+2/3'
18 'x+1/3, y+2/3, z+2/3'
loop_
_atom_type_symbol
_atom_type_oxidation_number
Al3+ 3
Na1+ 1
Ca2+ 2
Na1+ 1
Ca2+ 2
Na1+ 1
P5+ 5
O2- -2
loop_
_atom_site_label
_atom_site_type_symbol
_atom_site_symmetry_multiplicity
_atom_site_Wyckoff_symbol
_atom_site_fract_x
_atom_site_fract_y
_atom_site_fract_z
_atom_site_B_iso_or_equiv
_atom_site_occupancy
_atom_site_attached_hydrogens
Al1 Al3+ 3 b 0 0 0.5 . 1. 0
Al2 Al3+ 9 e 0.3333 0.1667 0.6667 . 1. 0
Al3 Al3+ 3 a 0 0 0 . 1. 0
Na1 Na1+ 18 f 0.22270(7) 0.01911(7) 0.8490(2) . 0.75 0
Ca1 Ca2+ 18 f 0.22270(7) 0.01911(7) 0.8490(2) . 0.25 0
Na2 Na1+ 18 f 0.28901(6) -.00068(6) 0.1722(2) . 0.75 0
Ca2 Ca2+ 18 f 0.28901(6) -.00068(6) 0.1722(2) . 0.25 0
Na3 Na1+ 18 f 0.15303(8) 0.11151(8) 0.4772(2) . 1. 0
Na4 Na1+ 18 f 0.3198(1) 0.1849(1) 0.0321(2) . 1. 0
Na5 Na1+ 18 f 0.1063(1) 0.1673(1) 0.8439(3) . 1. 0
P1 P5+ 18 f 0.10240(5) 0.03920(5) 0.7582(1) . 1. 0
P2 P5+ 18 f 0.21793(5) 0.14760(5) 0.8453(1) . 1. 0
P3 P5+ 18 f 0.22868(4) -.07254(5) 0.6042(1) . 1. 0
P4 P5+ 18 f 0.24706(5) 0.04688(5) 0.4931(1) . 1. 0
O1 O2- 18 f 0.1626(1) 0.1051(1) 0.7367(3) . 1. 0
O2 O2- 18 f 0.0714(1) 0.0326(1) 0.6134(3) . 1. 0
O3 O2- 18 f 0.0694(1) 0.0477(1) 0.8839(3) . 1. 0
O4 O2- 18 f 0.1214(1) -.0075(1) 0.7759(3) . 1. 0
O5 O2- 18 f 0.2228(1) 0.1065(1) 0.9539(3) . 1. 0
O6 O2- 18 f 0.2039(1) 0.1939(1) 0.9083(3) . 1. 0
O7 O2- 18 f 0.2736(1) 0.1808(1) 0.7490(3) . 1. 0
O8 O2- 18 f 0.2111(1) -.0229(1) 0.5528(3) . 1. 0
O9 O2- 18 f 0.1893(1) -.1287(1) 0.5159(3) . 1. 0
O10 O2- 18 f 0.2106(2) -.0845(2) 0.7613(4) . 1. 0
O11 O2- 18 f 0.2960(1) -.0475(1) 0.5842(3) . 1. 0
O12 O2- 18 f 0.2744(1) 0.0832(1) 0.6309(3) . 1. 0
O13 O2- 18 f 0.1975(1) 0.0547(1) 0.4277(3) . 1. 0
O14 O2- 18 f 0.2949(1) 0.0517(1) 0.3887(3) . 1. 0
loop_
_atom_site_aniso_label
_atom_site_aniso_type_symbol
_atom_site_aniso_U_11
_atom_site_aniso_U_22
_atom_site_aniso_U_33
_atom_site_aniso_U_12
_atom_site_aniso_U_13
_atom_site_aniso_U_23
Al1 Al3+ 0.0061(9) 0.0061(9) 0.008(1) 0.0031(4) 0 0
Al2 Al3+ 0.0077(8) 0.0074(8) 0.0087(9) 0.0034(7) -.0009(7) -.0004(7)
Al3 Al3+ 0.0091(9) 0.0091(9) 0.007(1) 0.0046(5) 0 0
Na1 Na1+ 0.0185(8) 0.0211(8) 0.0172(8) 0.0108(7) 0.0004(6) 0.0011(6)
Ca1 Ca2+ 0.0185(8) 0.0211(8) 0.0172(8) 0.0108(7) 0.0004(6) 0.0011(6)
Na2 Na1+ 0.0113(7) 0.0187(7) 0.0136(7) 0.0107(6) -.0043(6) -.0074(6)
Ca2 Ca2+ 0.0113(7) 0.0187(7) 0.0136(7) 0.0107(6) -.0043(6) -.0074(6)
Na3 Na1+ 0.0174(9) 0.0131(9) 0.0161(9) 0.0070(8) 0.0011(7) 0.0019(7)
Na4 Na1+ 0.033(1) 0.031(1) 0.036(1) 0.015(1) 0.0062(9) -.004(1)
Na5 Na1+ 0.024(1) 0.065(2) 0.054(2) 0.028(1) -.022(1) -.042(1)
P1 P5+ 0.0069(5) 0.0079(5) 0.0085(5) 0.00218(4) -.0001(4) -.0005(4)
P2 P5+ 0.0067(5) 0.0087(5) 0.0096(5) 0.0027(4) 0.0005(4) -.0005(4)
P3 P5+ 0.0123(6) 0.0076(5) 0.0105(6) 0.0043(4) -.0003(4) -.0001(4)
P4 P5+ 0.0081(5) 0.0080(5) 0.0126(6) 0.0037(4) -.0005(4) -.0014(4)
O1 O2- 0.008(2) 0.011(2) 0.011(2) 0.002(1) -.001(1) 0.000(1)
O2 O2- 0.012(2) 0.016(2) 0.010(2) 0.005(1) -.004(1) -.001(1)
O3 O2- 0.012(2) 0.011(2) 0.012(2) 0.004(1) 0.004(1) 0.002(1)
O4 O2- 0.014(2) 0.013(2) 0.017(2) 0.008(1) 0.000(1) 0.001(1)
O5 O2- 0.014(2) 0.016(2) 0.013(2) 0.005(1) 0.003(1) 0.006(1)
O6 O2- 0.012(2) 0.014(2) 0.018(2) 0.006(1) 0.002(1) -.003(1)
O7 O2- 0.009(1) 0.011(2) 0.014(2) 0.005(1) 0.002(1) 0.003(1)
O8 O2- 0.011(2) 0.006(2) 0.026(2) 0.004(1) 0.002(1) 0.000(1)
O9 O2- 0.013(2) 0.009(2) 0.012(2) 0.005(1) 0.000(1) -.001(1)
O10 O2- 0.043(2) 0.027(2) 0.008(2) 0.013(2) 0.002(2) 0.000(1)
O11 O2- 0.012(2) 0.014(2) 0.024(2) 0.006(1) -.003(1) -.001(1)
O12 O2- 0.010(2) 0.011(2) 0.011(2) 0.004(1) 0.000(1) -.002(1)
O13 O2- 0.015(2) 0.015(2) 0.020(2) 0.009(1) -.004(1) -.001(1)
O14 O2- 0.014(2) 0.018(2) 0.016(2) 0.009(1) 0.003(1) -.001(1)
#End of TTdata_401030-ICSD