
#(C) 2019 by FIZ Karlsruhe - Leibniz Institute for Information Infrastructure.  All rights reserved.
data_401178-ICSD
_database_code_ICSD 401178
_audit_creation_date 1995-10-17
_audit_update_record 2013-02-01
_chemical_name_systematic 'Pentasodium catena-diboratotriphosphate(V)'
_chemical_formula_structural 'Na5 (B2 P3 O13)'
_chemical_formula_sum 'B2 Na5 O13 P3'
_exptl_crystal_density_diffrn 2.68
_publ_section_title

;
Crystal structure of pentasodium catena-(diborato-triphosphate), Na5 (B2 P3
O13)
;
loop_
_citation_id
_citation_journal_full
_citation_year
_citation_journal_volume
_citation_page_first
_citation_page_last
_citation_journal_id_ASTM
primary 'Zeitschrift fuer Kristallographie' 1995 210 446 446 ZEKRDZ
loop_
_publ_author_name
'Hauf, C.'
'Friedrich, T.'
'Kniep, R.'
_cell_length_a 6.711(20)
_cell_length_b 11.618(20)
_cell_length_c 7.686(20)
_cell_angle_alpha 90.00(2)
_cell_angle_beta 115.166(20)
_cell_angle_gamma 90.00(2)
_cell_volume 542.38
_cell_formula_units_Z 2
_symmetry_space_group_name_H-M 'P 1 21 1'
_symmetry_Int_Tables_number 4
_refine_ls_R_factor_all 0.086
loop_
_symmetry_equiv_pos_site_id
_symmetry_equiv_pos_as_xyz
1 '-x, y+1/2, -z'
2 'x, y, z'
loop_
_atom_type_symbol
_atom_type_oxidation_number
P5+ 5
Na1+ 1
O2- -2
B3+ 3
loop_
_atom_site_label
_atom_site_type_symbol
_atom_site_symmetry_multiplicity
_atom_site_Wyckoff_symbol
_atom_site_fract_x
_atom_site_fract_y
_atom_site_fract_z
_atom_site_B_iso_or_equiv
_atom_site_occupancy
_atom_site_attached_hydrogens
P1 P5+ 2 a 0.15737 0.57587 0.30654 . 1. 0
P2 P5+ 2 a -.15636 0.56283 -.32075 . 1. 0
P3 P5+ 2 a 0.50119 0.34858 -.00993 . 1. 0
Na1 Na1+ 2 a -.09562 0.73555 -.03263 . 1. 0
Na2 Na1+ 2 a 0.04504 0.33238 0.5097 . 1. 0
Na3 Na1+ 2 a 0.52687 0.33204 0.49535 . 1. 0
Na4 Na1+ 2 a 0.38131 0.60212 -.27718 . 1. 0
Na5 Na1+ 2 a 0.64965 0.60768 0.26521 . 1. 0
O1 O2- 2 a 0.07126 0.42436 0.00654 . 1. 0
O2 O2- 2 a 0.25787 0.47849 0.4404 . 1. 0
O3 O2- 2 a -.19085 0.47136 -.46598 . 1. 0
O4 O2- 2 a -.09045 0.55053 0.16033 . 1. 0
O5 O2- 2 a 0.09693 0.58196 -.18186 . 1. 0
O6 O2- 2 a 0.26867 0.59511 0.16234 . 1. 0
O7 O2- 2 a 0.74844 0.36574 0.03016 . 1. 0
O8 O2- 2 a 0.42453 0.47686 0.00338 . 1. 0
O9 O2- 2 a -.24873 0.67988 -.40312 . 1. 0
O10 O2- 2 a -.26091 0.52851 -.17798 . 1. 0
O11 O2- 2 a 0.16286 0.68858 0.40608 . 1. 0
O12 O2- 2 a 0.49075 0.27716 0.14442 . 1. 0
O13 O2- 2 a 0.36959 0.30475 -.2102 . 1. 0
B1 B3+ 2 a -.13169 0.46465 0.00372 0.00898 1. 0
B2 B3+ 2 a 0.21118 0.5128 -.0037 0.01183 1. 0
loop_
_atom_site_aniso_label
_atom_site_aniso_type_symbol
_atom_site_aniso_U_11
_atom_site_aniso_U_22
_atom_site_aniso_U_33
_atom_site_aniso_U_12
_atom_site_aniso_U_13
_atom_site_aniso_U_23
P1 P5+ 0.00799 0.00909 0.01678 -.00001 0.0085 -.00116
P2 P5+ 0.01034 0.0156 0.01441 0.0021 0.00726 -.00049
P3 P5+ 0.00835 0.00859 0.02432 -.001 0.0104 0.00017
Na1 Na1+ 0.03371 0.00503 0.05688 0.00182 0.0203 -.00099
Na2 Na1+ 0.0192 0.014 0.04339 0.00305 0.01742 0.00341
Na3 Na1+ 0.01304 0.01748 0.06624 0.00033 0.02093 0.00054
Na4 Na1+ 0.01129 0.0174 0.02309 -.00014 0.00897 0.00012
Na5 Na1+ 0.01101 0.02188 0.02322 0.00011 0.00954 -.00289
O1 O2- 0.01005 0.00304 0.03041 0.00128 0.01354 0.00011
O2 O2- 0.02516 0.00553 0.02434 0.00509 0.01103 0.00538
O3 O2- 0.01689 0.02167 0.02271 0.00139 0.01077 -.00569
O4 O2- 0.00766 0.04115 0.01328 0.00482 0.00759 -.00303
O5 O2- 0.00963 0.02439 0.01836 -.00014 0.00697 0.00546
O6 O2- 0.01223 0.02122 0.01691 -.00521 0.01354 -.00475
O7 O2- 0.01264 0.001 0.05036 0.00249 0.02025 0.00364
O8 O2- 0.00808 0.01034 0.02928 0.00019 0.0146 -.00174
O9 O2- 0.01629 0.01386 0.02366 0.01097 0.0109 0.00294
O10 O2- 0.01271 0.0338 0.01408 0.00028 0.00601 0.00359
O11 O2- 0.02069 0.01382 0.02147 0.00128 0.01192 -.00151
O12 O2- 0.04904 0.02519 0.0668 0.01876 0.04505 0.02032
O13 O2- 0.03828 0.0418 0.03936 0.02404 -.01245 -.0171
#End of TTdata_401178-ICSD