
#(C) 2019 by FIZ Karlsruhe - Leibniz Institute for Information Infrastructure.  All rights reserved.
data_40157-ICSD
_database_code_ICSD 40157
_audit_creation_date 1999-11-30
_audit_update_record 2007-08-01
_chemical_name_systematic 'Sodium copper(I) oxide'
_chemical_formula_structural 'Na Cu O'
_chemical_formula_sum 'Cu1 Na1 O1'
_chemical_name_structure_type LiCuO
_exptl_crystal_density_diffrn 3.72
_publ_section_title

;
Zur Struktur der K Ag O-Verwandschaft. Neubestimmung an A Ag O= A4 (Ag4 O4)
(A= Na-Rb) mit einer Bemerkung zu Cs Cu O
;
loop_
_citation_id
_citation_journal_full
_citation_year
_citation_journal_volume
_citation_page_first
_citation_page_last
_citation_journal_id_ASTM
primary 'Zeitschrift fuer Anorganische und Allgemeine Chemie (1950) (DE)' 1990
585 75 81 ZAACAB
loop_
_publ_author_name
'Fischer, D.'
'Carl, W.'
'Glaum, H.'
'Hoppe, R.'
_cell_length_a 8.861(1)
_cell_length_b 8.861(1)
_cell_length_c 4.666(1)
_cell_angle_alpha 90.
_cell_angle_beta 90.
_cell_angle_gamma 90.
_cell_volume 366.36
_cell_formula_units_Z 8
_symmetry_space_group_name_H-M 'I 4/m m m'
_symmetry_Int_Tables_number 139
_refine_ls_R_factor_all 0.08
loop_
_symmetry_equiv_pos_site_id
_symmetry_equiv_pos_as_xyz
1 'y, x, -z'
2 '-y, -x, -z'
3 '-y, x, -z'
4 'y, -x, -z'
5 '-x, y, -z'
6 'x, -y, -z'
7 'x, y, -z'
8 '-x, -y, -z'
9 '-y, -x, z'
10 'y, x, z'
11 'y, -x, z'
12 '-y, x, z'
13 'x, -y, z'
14 '-x, y, z'
15 '-x, -y, z'
16 'x, y, z'
17 'y+1/2, x+1/2, -z+1/2'
18 '-y+1/2, -x+1/2, -z+1/2'
19 '-y+1/2, x+1/2, -z+1/2'
20 'y+1/2, -x+1/2, -z+1/2'
21 '-x+1/2, y+1/2, -z+1/2'
22 'x+1/2, -y+1/2, -z+1/2'
23 'x+1/2, y+1/2, -z+1/2'
24 '-x+1/2, -y+1/2, -z+1/2'
25 '-y+1/2, -x+1/2, z+1/2'
26 'y+1/2, x+1/2, z+1/2'
27 'y+1/2, -x+1/2, z+1/2'
28 '-y+1/2, x+1/2, z+1/2'
29 'x+1/2, -y+1/2, z+1/2'
30 '-x+1/2, y+1/2, z+1/2'
31 '-x+1/2, -y+1/2, z+1/2'
32 'x+1/2, y+1/2, z+1/2'
loop_
_atom_type_symbol
_atom_type_oxidation_number
Cu1+ 1
Na1+ 1
O2- -2
loop_
_atom_site_label
_atom_site_type_symbol
_atom_site_symmetry_multiplicity
_atom_site_Wyckoff_symbol
_atom_site_fract_x
_atom_site_fract_y
_atom_site_fract_z
_atom_site_B_iso_or_equiv
_atom_site_occupancy
_atom_site_attached_hydrogens
Cu1 Cu1+ 8 h 0.1483(2) 0.1483(2) 0 . 1. 0
Na1 Na1+ 8 j 0.5 0.1736(9) 0 . 1. 0
O1 O2- 8 i 0.2917(14) 0 0 . 1. 0
loop_
_atom_site_aniso_label
_atom_site_aniso_type_symbol
_atom_site_aniso_U_11
_atom_site_aniso_U_22
_atom_site_aniso_U_33
_atom_site_aniso_U_12
_atom_site_aniso_U_13
_atom_site_aniso_U_23
Cu1 Cu1+ 0.0096(8) 0.0096(8) 0.0073(10) 0.0007(11) 0 0
Na1 Na1+ 0.0117(35) 0.0218(44) 0.0050(33) 0 0 0
O1 O2- 0.0054(59) 0.0143(65) 0.0112(61) 0 0 0
#End of TTdata_40157-ICSD