
#(C) 2019 by FIZ Karlsruhe - Leibniz Institute for Information Infrastructure.  All rights reserved.
data_401862-ICSD
_database_code_ICSD 401862
_audit_creation_date 1996-04-22
_chemical_name_systematic Disodiumheptafluoroferro(II)vanadate(III)
_chemical_formula_structural 'Na2 (Fe V F7)'
_chemical_formula_sum 'F7 Fe1 Na2 V1'
_chemical_name_structure_type Na2CoFeF7
_exptl_crystal_density_diffrn 3.3
_publ_section_title

;
Kristallstrukturbestimmung an vier monoklinen Weberiten Na2 M(II) M(III) F7
(M(II)= Fe, Co; M(III)= V, Cr)
;
loop_
_citation_id
_citation_journal_full
_citation_year
_citation_journal_volume
_citation_page_first
_citation_page_last
_citation_journal_id_ASTM
primary 'Zeitschrift fuer Anorganische und Allgemeine Chemie (1950) (DE)' 1995
621 1573 1581 ZAACAB
loop_
_publ_author_name
'Peschel, B.'
'Molinier, M.'
'Babel, D.'
_cell_length_a 12.710(3)
_cell_length_b 7.429(1)
_cell_length_c 24.7160(50)
_cell_angle_alpha 90.
_cell_angle_beta 100.03(3)
_cell_angle_gamma 90.
_cell_volume 2298.08
_cell_formula_units_Z 16
_symmetry_space_group_name_H-M 'C 1 2/c 1'
_symmetry_Int_Tables_number 15
_refine_ls_R_factor_all 0.043
loop_
_symmetry_equiv_pos_site_id
_symmetry_equiv_pos_as_xyz
1 'x, -y, z+1/2'
2 '-x, -y, -z'
3 '-x, y, -z+1/2'
4 'x, y, z'
5 'x+1/2, -y+1/2, z+1/2'
6 '-x+1/2, -y+1/2, -z'
7 '-x+1/2, y+1/2, -z+1/2'
8 'x+1/2, y+1/2, z'
loop_
_atom_type_symbol
_atom_type_oxidation_number
F1- -1
Na1+ 1
V3+ 3
Fe2+ 2
loop_
_atom_site_label
_atom_site_type_symbol
_atom_site_symmetry_multiplicity
_atom_site_Wyckoff_symbol
_atom_site_fract_x
_atom_site_fract_y
_atom_site_fract_z
_atom_site_B_iso_or_equiv
_atom_site_occupancy
_atom_site_attached_hydrogens
F1 F1- 8 f 0.3357(3) 0.0814(6) 0.0470(2) . 1. 0
F2 F1- 8 f 0.4205(4) -.0599(6) 0.2096(2) . 1. 0
F3 F1- 8 f 0.4867(4) 0.2123(5) 0.1424(2) . 1. 0
F4 F1- 8 f 0.2674(3) -.1949(6) 0.1105(2) . 1. 0
F5 F1- 8 f 0.1420(4) 0.2777(6) 0.0452(2) . 1. 0
F6 F1- 8 f 0.1120(4) 0.2486(5) 0.2068(2) . 1. 0
F7 F1- 8 f 0.0722(3) 0.0021(5) 0.1091(2) . 1. 0
F8 F1- 8 f 0.1799(3) 0.5191(5) 0.1423(2) . 1. 0
F9 F1- 8 f 0.2790(3) 0.1854(6) 0.1549(2) . 1. 0
F10 F1- 8 f -.0255(3) 0.3309(5) 0.0990(2) . 1. 0
F11 F1- 8 f 0.3316(3) 0.4558(6) 0.0332(2) . 1. 0
F12 F1- 8 f 0.0809(3) 0.0589(6) 0.2917(2) . 1. 0
F13 F1- 8 f 0.1672(3) 0.8052(5) 0.2039(2) . 1. 0
F14 F1- 8 f 0.0858(4) 0.7180(5) 0.0476(2) . 1. 0
Na1 Na1+ 4 a 0 0 0 . 1. 0
Na2 Na1+ 4 b 0 0.5 0 . 1. 0
Na3 Na1+ 4 d 0.25 0.25 0.5 . 1. 0
Na4 Na1+ 4 e 0 0.7801(6) 0.25 . 1. 0
Na5 Na1+ 8 f 0.2529(2) 0.0395(5) 0.25270(12) . 1. 0
Na6 Na1+ 8 f 0.3739(4) 0.5090(6) 0.12125(15) . 1. 0
V1 V3+ 4 c 0.25 0.25 0 . 1. 0
V2 V3+ 4 e 0 0.2459(2) 0.25 . 1. 0
V3 V3+ 8 f 0.1259(2) 0.76129(12) 0.12597(8) . 1. 0
Fe1 Fe2+ 8 f 0.37733(10) 0.00797(14) 0.12765(5) . 1. 0
Fe2 Fe2+ 8 f 0.12700(15) 0.25963(11) 0.12614(7) . 1. 0
loop_
_atom_site_aniso_label
_atom_site_aniso_type_symbol
_atom_site_aniso_U_11
_atom_site_aniso_U_22
_atom_site_aniso_U_33
_atom_site_aniso_U_12
_atom_site_aniso_U_13
_atom_site_aniso_U_23
F1 F1- 0.031(2) 0.043(3) 0.017(2) 0.006(2) -.001(2) 0.014(2)
F2 F1- 0.038(3) 0.032(2) 0.019(2) 0.010(2) 0.000(2) 0.010(2)
F3 F1- 0.023(2) 0.027(2) 0.043(3) -.009(2) 0.009(2) -.004(2)
F4 F1- 0.019(2) 0.031(2) 0.041(3) -.010(2) 0.006(2) -.002(2)
F5 F1- 0.037(3) 0.042(2) 0.017(2) 0.009(2) 0.015(2) 0.006(2)
F6 F1- 0.026(3) 0.041(3) 0.014(2) 0.002(2) 0.004(2) 0.005(2)
F7 F1- 0.033(2) 0.012(2) 0.031(2) 0.002(2) 0.000(2) 0.001(2)
F8 F1- 0.027(2) 0.014(2) 0.037(2) -.002(2) -.003(2) 0.001(2)
F9 F1- 0.020(2) 0.033(2) 0.036(3) 0.011(2) -.001(2) -.010(2)
F10 F1- 0.020(2) 0.033(2) 0.028(2) 0.011(2) 0.000(2) -.005(2)
F11 F1- 0.031(2) 0.034(2) 0.019(2) -.008(2) 0.000(2) -.005(2)
F12 F1- 0.030(2) 0.027(2) 0.018(2) 0.008(2) 0.000(2) 0.010(2)
F13 F1- 0.025(2) 0.021(2) 0.019(2) 0.000(2) -.007(2) -.001(2)
F14 F1- 0.036(3) 0.026(2) 0.024(2) -.004(2) -.003(2) -.004(2)
Na1 Na1+ 0.035(3) 0.051(3) 0.055(3) 0.007(2) 0.017(2) 0.015(3)
Na2 Na1+ 0.036(3) 0.031(3) 0.054(3) -.002(2) -.011(2) -.019(2)
Na3 Na1+ 0.064(5) 0.058(4) 0.069(5) -.022(3) 0.028(4) -.020(3)
Na4 Na1+ 0.052(4) 0.036(3) 0.056(4) 0 0.021(3) 0
Na5 Na1+ 0.032(2) 0.028(2) 0.035(2) -.0068(12) -.001(2) -.0136(14)
Na6 Na1+ 0.0396(15) 0.065(2) 0.018(2) 0.010(2) -.0010(12) -.0130(15)
V1 V3+ 0.0132(11) 0.0180(9) 0.0068(10) -.0003(5) 0.0010(8) 0.0008(6)
V2 V3+ 0.0152(12) 0.0169(9) 0.0081(10) 0 0.0002(8) 0
V3 V3+ 0.0123(4) 0.0108(4) 0.0132(4) -.0013(4) -.0002(3) -.0013(4)
Fe1 Fe2+ 0.0125(3) 0.0143(4) 0.0127(4) 0.0005(3) 0.0006(3) 0.0006(3)
Fe2 Fe2+ 0.0137(3) 0.0128(3) 0.0109(3) 0.0008(3) 0.0018(2) -.0003(3)
#End of TTdata_401862-ICSD