
#(C) 2019 by FIZ Karlsruhe - Leibniz Institute for Information Infrastructure.  All rights reserved.
data_401861-ICSD
_database_code_ICSD 401861
_audit_creation_date 1996-04-22
_chemical_name_systematic 'Disodium heptafluorocobalto(II)vanadate(III)'
_chemical_formula_structural 'Na2 (Co V F7)'
_chemical_formula_sum 'Co1 F7 Na2 V1'
_chemical_name_structure_type Na2CoFeF7
_exptl_crystal_density_diffrn 3.37
_publ_section_title

;
Kristallstrukturbestimmung an vier monoklinen Weberiten Na2 M(II) M(III) F7
(M(II)= Fe, Co; M(III)= V, Cr)
;
loop_
_citation_id
_citation_journal_full
_citation_year
_citation_journal_volume
_citation_page_first
_citation_page_last
_citation_journal_id_ASTM
primary 'Zeitschrift fuer Anorganische und Allgemeine Chemie (1950) (DE)' 1995
621 1573 1581 ZAACAB
loop_
_publ_author_name
'Peschel, B.'
'Molinier, M.'
'Babel, D.'
_cell_length_a 12.703(5)
_cell_length_b 7.391(3)
_cell_length_c 24.651(10)
_cell_angle_alpha 90.
_cell_angle_beta 100.02(3)
_cell_angle_gamma 90.
_cell_volume 2279.13
_cell_formula_units_Z 16
_symmetry_space_group_name_H-M 'C 1 2/c 1'
_symmetry_Int_Tables_number 15
_refine_ls_R_factor_all 0.028
loop_
_symmetry_equiv_pos_site_id
_symmetry_equiv_pos_as_xyz
1 'x, -y, z+1/2'
2 '-x, -y, -z'
3 '-x, y, -z+1/2'
4 'x, y, z'
5 'x+1/2, -y+1/2, z+1/2'
6 '-x+1/2, -y+1/2, -z'
7 '-x+1/2, y+1/2, -z+1/2'
8 'x+1/2, y+1/2, z'
loop_
_atom_type_symbol
_atom_type_oxidation_number
Co2+ 2
V3+ 3
Na1+ 1
F1- -1
loop_
_atom_site_label
_atom_site_type_symbol
_atom_site_symmetry_multiplicity
_atom_site_Wyckoff_symbol
_atom_site_fract_x
_atom_site_fract_y
_atom_site_fract_z
_atom_site_B_iso_or_equiv
_atom_site_occupancy
_atom_site_attached_hydrogens
Co1 Co2+ 8 f 0.37735(3) 0.00858(4) 0.12756(2) . 1. 0
Co2 Co2+ 8 f 0.12665(4) 0.26038(4) 0.12599(2) . 1. 0
V1 V3+ 4 c 0.25 0.25 0 . 1. 0
V2 V3+ 4 e 0 0.24702(7) 0.25 . 1. 0
V3 V3+ 8 f 0.12625(5) 0.76163(5) 0.12568(2) . 1. 0
Na1 Na1+ 4 a 0 0 0 . 1. 0
Na2 Na1+ 4 b 0 0.5 0 . 1. 0
Na3 Na1+ 4 d 0.25 0.25 0.5 . 1. 0
Na4 Na1+ 4 e 0.5 0.2780(3) 0.25 . 1. 0
Na5 Na1+ 8 f 0.25313(9) 0.0387(2) 0.25188(5) . 1. 0
Na6 Na1+ 8 f 0.37379(13) 0.5085(2) 0.12160(5) . 1. 0
F1 F1- 8 f 0.33660(13) 0.0800(2) 0.04716(6) . 1. 0
F2 F1- 8 f 0.41950(13) -.0578(2) 0.20912(6) . 1. 0
F3 F1- 8 f 0.48519(13) 0.2118(2) 0.14153(7) . 1. 0
F4 F1- 8 f 0.26819(12) -.1918(2) 0.11114(7) . 1. 0
F5 F1- 8 f 0.14140(15) 0.2760(2) 0.04586(7) . 1. 0
F6 F1- 8 f 0.11284(15) 0.2507(2) 0.20632(7) . 1. 0
F7 F1- 8 f 0.07178(12) 0.0050(2) 0.10998(7) . 1. 0
F8 F1- 8 f 0.17967(12) 0.5170(2) 0.14106(7) . 1. 0
F9 F1- 8 f 0.27752(12) 0.1841(2) 0.15347(7) . 1. 0
F10 F1- 8 f -.02443(12) 0.3335(2) 0.10013(7) . 1. 0
F11 F1- 8 f 0.33125(13) 0.4574(2) 0.03288(6) . 1. 0
F12 F1- 8 f 0.08166(13) 0.0587(2) 0.29121(6) . 1. 0
F13 F1- 8 f 0.16613(13) 0.8031(2) 0.20441(6) . 1. 0
F14 F1- 8 f 0.08708(15) 0.7222(2) 0.04707(7) . 1. 0
loop_
_atom_site_aniso_label
_atom_site_aniso_type_symbol
_atom_site_aniso_U_11
_atom_site_aniso_U_22
_atom_site_aniso_U_33
_atom_site_aniso_U_12
_atom_site_aniso_U_13
_atom_site_aniso_U_23
Co1 Co2+ 0.01058(14) 0.01098(14) 0.01385(14) 0.00004(11) 0.00243(10) 0.00097(11)
Co2 Co2+ 0.01189(14) 0.00986(14) 0.01220(14) 0.00081(11) 0.0036(1) 0.00021(11)
V1 V3+ 0.0134(3) 0.0132(3) 0.0094(3) 0.0005(2) 0.0024(3) 0.0007(2)
V2 V3+ 0.0127(3) 0.0130(3) 0.0099(3) 0 0.0025(3) 0
V3 V3+ 0.0118(2) 0.0087(2) 0.0141(2) -.00153(14) 0.00167(13) -.00027(14)
Na1 Na1+ 0.0319(11) 0.0492(13) 0.0533(13) 0.0064(9) 0.0174(10) 0.0214(10)
Na2 Na1+ 0.0365(11) 0.0288(10) 0.0577(13) -.0004(8) -.0098(10) -.0227(9)
Na3 Na1+ 0.058(2) 0.0506(14) 0.072(2) -.0199(11) 0.032(2) -.0217(12)
Na4 Na1+ 0.0462(14) 0.0314(10) 0.0519(14) 0 0.0224(12) 0
Na5 Na1+ 0.0284(7) 0.0260(6) 0.0402(8) -.0047(5) 0.0011(6) -.0123(5)
Na6 Na1+ 0.0391(7) 0.0699(11) 0.0163(6) 0.0134(7) -.0018(5) -.0149(6)
F1 F1- 0.0273(8) 0.0344(9) 0.0166(7) 0.0078(7) 0.0023(6) 0.0102(7)
F2 F1- 0.0295(9) 0.0277(8) 0.0175(7) 0.0093(7) 0.0032(6) 0.0072(7)
F3 F1- 0.0175(8) 0.0189(7) 0.0406(10) -.0055(6) 0.0092(7) -.0023(7)
F4 F1- 0.0173(8) 0.0215(8) 0.036(1) -.0065(6) 0.0072(7) -.0022(7)
F5 F1- 0.0264(9) 0.0348(9) 0.0171(8) 0.0067(7) 0.0113(7) 0.0045(7)
F6 F1- 0.0227(9) 0.0369(10) 0.0155(8) 0.0033(6) 0.0094(7) 0.0022(6)
F7 F1- 0.0231(7) 0.0104(6) 0.0338(8) -.0003(6) 0.0021(6) 0.0005(6)
F8 F1- 0.0229(7) 0.0101(6) 0.0360(9) -.0005(6) 0.0014(6) -.0002(6)
F9 F1- 0.0168(8) 0.0255(8) 0.0304(9) 0.0077(6) 0.0032(6) -.0062(7)
F10 F1- 0.0167(7) 0.0260(8) 0.0295(9) 0.0079(6) 0.0032(6) -.0055(7)
F11 F1- 0.0271(8) 0.0246(8) 0.0215(8) -.0073(7) 0.0028(6) -.0050(7)
F12 F1- 0.0265(8) 0.0233(8) 0.0211(8) 0.0051(7) 0.0017(6) 0.0060(6)
F13 F1- 0.0264(9) 0.0189(7) 0.0182(8) -.0001(7) -.0018(7) -.0029(6)
F14 F1- 0.0301(10) 0.0221(8) 0.0206(8) -.0041(7) 0.0001(7) -.0041(6)
#End of TTdata_401861-ICSD