
#(C) 2019 by FIZ Karlsruhe - Leibniz Institute for Information Infrastructure.  All rights reserved.
data_401860-ICSD
_database_code_ICSD 401860
_audit_creation_date 1996-04-22
_chemical_name_systematic 'Disodium heptafluoroferro(II)chromate(III)'
_chemical_formula_structural 'Na2 (Fe Cr F7)'
_chemical_formula_sum 'Cr1 F7 Fe1 Na2'
_chemical_name_structure_type Na2CoFeF7
_exptl_crystal_density_diffrn 3.37
_publ_section_title

;
Kristallstrukturbestimmung an vier monoklinen Weberiten Na2 M(II) M(III) F7
(M(II)= Fe, Co; M(III)= V, Cr)
;
loop_
_citation_id
_citation_journal_full
_citation_year
_citation_journal_volume
_citation_page_first
_citation_page_last
_citation_journal_id_ASTM
primary 'Zeitschrift fuer Anorganische und Allgemeine Chemie (1950) (DE)' 1995
621 1573 1581 ZAACAB
loop_
_publ_author_name
'Peschel, B.'
'Molinier, M.'
'Babel, D.'
_cell_length_a 12.625(3)
_cell_length_b 7.391(1)
_cell_length_c 24.605(5)
_cell_angle_alpha 90.
_cell_angle_beta 99.93(3)
_cell_angle_gamma 90.
_cell_volume 2261.53
_cell_formula_units_Z 16
_symmetry_space_group_name_H-M 'C 1 2/c 1'
_symmetry_Int_Tables_number 15
_refine_ls_R_factor_all 0.029
loop_
_symmetry_equiv_pos_site_id
_symmetry_equiv_pos_as_xyz
1 'x, -y, z+1/2'
2 '-x, -y, -z'
3 '-x, y, -z+1/2'
4 'x, y, z'
5 'x+1/2, -y+1/2, z+1/2'
6 '-x+1/2, -y+1/2, -z'
7 '-x+1/2, y+1/2, -z+1/2'
8 'x+1/2, y+1/2, z'
loop_
_atom_type_symbol
_atom_type_oxidation_number
F1- -1
Na1+ 1
Cr3+ 3
Fe2+ 2
loop_
_atom_site_label
_atom_site_type_symbol
_atom_site_symmetry_multiplicity
_atom_site_Wyckoff_symbol
_atom_site_fract_x
_atom_site_fract_y
_atom_site_fract_z
_atom_site_B_iso_or_equiv
_atom_site_occupancy
_atom_site_attached_hydrogens
F1 F1- 8 f 0.3350(2) 0.0829(3) 0.04703(7) . 1. 0
F2 F1- 8 f 0.4207(2) -.0585(3) 0.20923(7) . 1. 0
F3 F1- 8 f 0.4870(2) 0.2143(3) 0.14215(9) . 1. 0
F4 F1- 8 f 0.26628(15) -.1915(3) 0.11109(8) . 1. 0
F5 F1- 8 f 0.1434(2) 0.2769(3) 0.04514(8) . 1. 0
F6 F1- 8 f 0.1115(2) 0.2515(3) 0.20721(7) . 1. 0
F7 F1- 8 f 0.07362(15) 0.0015(2) 0.10932(8) . 1. 0
F8 F1- 8 f 0.17824(15) 0.5236(2) 0.14255(8) . 1. 0
F9 F1- 8 f 0.27994(14) 0.1916(3) 0.15587(8) . 1. 0
F10 F1- 8 f -.02704(14) 0.3287(3) 0.09783(8) . 1. 0
F11 F1- 8 f 0.3308(2) 0.4542(3) 0.03274(7) . 1. 0
F12 F1- 8 f 0.07938(15) 0.0638(2) 0.29153(7) . 1. 0
F13 F1- 8 f 0.1668(2) 0.8098(2) 0.20354(7) . 1. 0
F14 F1- 8 f 0.0863(2) 0.7179(3) 0.04861(8) . 1. 0
Na1 Na1+ 4 a 0 0 0 . 1. 0
Na2 Na1+ 4 b 0 0.5 0 . 1. 0
Na3 Na1+ 4 d 0.25 0.25 0.5 . 1. 0
Na4 Na1+ 4 e 0 0.7859(3) 0.25 . 1. 0
Na5 Na1+ 8 f 0.25287(11) 0.0433(2) 0.25283(6) . 1. 0
Na6 Na1+ 8 f 0.37397(14) 0.5100(3) 0.12128(6) . 1. 0
Cr1 Cr3+ 4 c 0.25 0.25 0 . 1. 0
Cr2 Cr3+ 4 e 0 0.24931(8) 0.25 . 1. 0
Cr3 Cr3+ 8 f 0.12620(5) 0.76292(5) 0.12600(2) . 1. 0
Fe1 Fe2+ 8 f 0.37736(3) 0.00948(5) 0.12772(2) . 1. 0
Fe2 Fe2+ 8 f 0.12691(4) 0.26136(5) 0.12611(2) . 1. 0
loop_
_atom_site_aniso_label
_atom_site_aniso_type_symbol
_atom_site_aniso_U_11
_atom_site_aniso_U_22
_atom_site_aniso_U_33
_atom_site_aniso_U_12
_atom_site_aniso_U_13
_atom_site_aniso_U_23
F1 F1- 0.0292(10) 0.0377(11) 0.0206(9) 0.0090(8) 0.0019(8) 0.0116(8)
F2 F1- 0.0316(10) 0.0285(10) 0.0215(9) 0.0084(8) 0.0026(8) 0.0076(8)
F3 F1- 0.0178(9) 0.0253(9) 0.0418(11) -.0060(7) 0.0101(8) -.0030(9)
F4 F1- 0.0181(9) 0.0248(9) 0.0400(11) -.0072(7) 0.0095(8) -.0014(8)
F5 F1- 0.0274(11) 0.0403(11) 0.0216(9) 0.0076(8) 0.0144(8) 0.0067(8)
F6 F1- 0.0244(11) 0.0409(11) 0.0166(9) 0.0021(8) 0.0092(8) 0.0025(8)
F7 F1- 0.0266(9) 0.0126(8) 0.0337(10) 0.0007(7) 0.0011(8) 0.0017(7)
F8 F1- 0.0257(9) 0.0122(7) 0.0357(10) 0.0007(7) -.0003(8) 0.0010(7)
F9 F1- 0.0171(9) 0.0297(10) 0.0337(10) 0.0080(8) 0.0021(8) -.0064(8)
F10 F1- 0.0172(9) 0.0287(10) 0.0332(10) 0.0070(7) 0.0046(8) -.0042(8)
F11 F1- 0.0298(10) 0.0311(10) 0.0225(9) -.0079(8) 0.0033(8) -.0045(8)
F12 F1- 0.0269(10) 0.0250(9) 0.0193(8) 0.0050(8) 0.0014(7) 0.0065(7)
F13 F1- 0.0279(10) 0.0222(9) 0.0208(9) 0.0005(8) -.0011(8) -.0028(7)
F14 F1- 0.0320(12) 0.0252(9) 0.0228(9) -.0049(8) -.0009(8) -.0042(8)
Na1 Na1+ 0.0360(13) 0.0494(14) 0.0495(14) 0.0043(10) 0.0180(11) 0.0135(11)
Na2 Na1+ 0.0443(14) 0.0285(11) 0.0486(14) -.0005(9) -.0110(11) -.0173(10)
Na3 Na1+ 0.063(2) 0.053(2) 0.070(2) -.0185(13) 0.028(2) -.0191(14)
Na4 Na1+ 0.046(2) 0.0352(11) 0.053(2) 0 0.0193(13) 0
Na5 Na1+ 0.0307(8) 0.0275(7) 0.0348(8) -.0040(5) 0.0009(6) -.0096(6)
Na6 Na1+ 0.0408(9) 0.0637(12) 0.0204(7) 0.0063(8) 0.0003(7) -.0141(7)
Cr1 Cr3+ 0.0138(4) 0.0176(3) 0.0090(3) 0.0004(2) 0.0029(3) 0.0017(2)
Cr2 Cr3+ 0.0137(4) 0.0159(3) 0.0098(3) 0 0.0031(3) 0
Cr3 Cr3+ 0.0122(2) 0.0095(2) 0.0171(2) -.00175(15) 0.00164(15) -.0001(2)
Fe1 Fe2+ 0.0118(2) 0.0125(2) 0.0135(2) 0.00008(13) 0.00266(13) 0.00033(13)
Fe2 Fe2+ 0.0123(2) 0.0115(2) 0.0132(2) 0.00044(13) 0.00357(13) -.00011(14)
#End of TTdata_401860-ICSD