
#(C) 2019 by FIZ Karlsruhe - Leibniz Institute for Information Infrastructure.  All rights reserved.
data_401863-ICSD
_database_code_ICSD 401863
_audit_creation_date 1996-04-22
_chemical_name_systematic 'Disodium heptafluorocobalto(II)chromate(III)'
_chemical_formula_structural 'Na2 (Co Cr F7)'
_chemical_formula_sum 'Co1 Cr1 F7 Na2'
_chemical_name_structure_type Na2CoFeF7
_exptl_crystal_density_diffrn 3.47
_publ_section_title

;
Kristallstrukturbestimmung an vier monoklinen Weberiten Na2 M(II) M(III) F7
(M(II)= Fe, Co; M(III)= V, Cr)
;
loop_
_citation_id
_citation_journal_full
_citation_year
_citation_journal_volume
_citation_page_first
_citation_page_last
_citation_journal_id_ASTM
primary 'Zeitschrift fuer Anorganische und Allgemeine Chemie (1950) (DE)' 1995
621 1573 1581 ZAACAB
loop_
_publ_author_name
'Peschel, B.'
'Molinier, M.'
'Babel, D.'
_cell_length_a 12.578(3)
_cell_length_b 7.335(1)
_cell_length_c 24.4150(50)
_cell_angle_alpha 90.
_cell_angle_beta 99.64(3)
_cell_angle_gamma 90.
_cell_volume 2220.71
_cell_formula_units_Z 16
_symmetry_space_group_name_H-M 'C 1 2/c 1'
_symmetry_Int_Tables_number 15
_refine_ls_R_factor_all 0.03
loop_
_symmetry_equiv_pos_site_id
_symmetry_equiv_pos_as_xyz
1 'x, -y, z+1/2'
2 '-x, -y, -z'
3 '-x, y, -z+1/2'
4 'x, y, z'
5 'x+1/2, -y+1/2, z+1/2'
6 '-x+1/2, -y+1/2, -z'
7 '-x+1/2, y+1/2, -z+1/2'
8 'x+1/2, y+1/2, z'
loop_
_atom_type_symbol
_atom_type_oxidation_number
F1- -1
Na1+ 1
Cr3+ 3
Co2+ 2
loop_
_atom_site_label
_atom_site_type_symbol
_atom_site_symmetry_multiplicity
_atom_site_Wyckoff_symbol
_atom_site_fract_x
_atom_site_fract_y
_atom_site_fract_z
_atom_site_B_iso_or_equiv
_atom_site_occupancy
_atom_site_attached_hydrogens
F1 F1- 8 f 0.3356(2) 0.0823(3) 0.04685(8) . 1. 0
F2 F1- 8 f 0.4202(2) -.0567(3) 0.20919(8) . 1. 0
F3 F1- 8 f 0.4866(2) 0.2128(3) 0.14138(9) . 1. 0
F4 F1- 8 f 0.2669(2) -.1905(3) 0.11092(9) . 1. 0
F5 F1- 8 f 0.1430(2) 0.2761(3) 0.04550(8) . 1. 0
F6 F1- 8 f 0.1117(2) 0.2523(3) 0.20670(8) . 1. 0
F7 F1- 8 f 0.0734(2) 0.0032(2) 0.10972(8) . 1. 0
F8 F1- 8 f 0.1786(2) 0.5214(2) 0.14141(8) . 1. 0
F9 F1- 8 f 0.27899(15) 0.1895(3) 0.15456(8) . 1. 0
F10 F1- 8 f -.02598(15) 0.3310(3) 0.09890(8) . 1. 0
F11 F1- 8 f 0.3300(2) 0.4570(3) 0.03237(8) . 1. 0
F12 F1- 8 f 0.0800(2) 0.0621(3) 0.29116(8) . 1. 0
F13 F1- 8 f 0.1657(2) 0.8060(3) 0.20372(8) . 1. 0
F14 F1- 8 f 0.0877(2) 0.7211(3) 0.04760(9) . 1. 0
Na1 Na1+ 4 a 0 0 0 . 1. 0
Na2 Na1+ 4 b 0 0.5 0 . 1. 0
Na3 Na1+ 4 d 0.25 0.25 0.5 . 1. 0
Na4 Na1+ 4 e 0 0.7814(3) 0.25 . 1. 0
Na5 Na1+ 8 f 0.25308(12) 0.0418(2) 0.25185(7) . 1. 0
Na6 Na1+ 8 f 0.37392(15) 0.5075(3) 0.12180(6) . 1. 0
Cr1 Cr3+ 4 c 0.25 0.25 0 . 1. 0
Cr2 Cr3+ 4 e 0 0.24986(9) 0.25 . 1. 0
Cr3 Cr3+ 8 f 0.12643(5) 0.76257(6) 0.12569(3) . 1. 0
Co1 Co2+ 8 f 0.37749(4) 0.00934(6) 0.12759(2) . 1. 0
Co2 Co2+ 8 f 0.12674(5) 0.26129(5) 0.12604(2) . 1. 0
loop_
_atom_site_aniso_label
_atom_site_aniso_type_symbol
_atom_site_aniso_U_11
_atom_site_aniso_U_22
_atom_site_aniso_U_33
_atom_site_aniso_U_12
_atom_site_aniso_U_13
_atom_site_aniso_U_23
F1 F1- 0.0276(11) 0.0326(11) 0.0190(9) 0.0087(9) 0.0027(8) 0.0086(8)
F2 F1- 0.0274(10) 0.0272(10) 0.0197(9) 0.0086(9) 0.0022(8) 0.0061(8)
F3 F1- 0.0169(10) 0.0216(9) 0.0368(12) -.0054(8) 0.0093(9) -.0024(8)
F4 F1- 0.0165(9) 0.0225(10) 0.0378(12) -.0058(8) 0.0088(9) -.0014(9)
F5 F1- 0.0239(11) 0.0358(11) 0.0196(10) 0.0061(9) 0.0102(9) 0.0049(8)
F6 F1- 0.0201(11) 0.0362(12) 0.0176(10) 0.0026(8) 0.0083(8) 0.0017(8)
F7 F1- 0.0230(9) 0.0123(9) 0.0316(10) 0.0014(7) 0.0006(8) 0.0010(7)
F8 F1- 0.0223(9) 0.0128(8) 0.0317(10) -.0007(7) 0.0009(8) 0.0000(7)
F9 F1- 0.0174(10) 0.0246(10) 0.0288(11) 0.0052(8) 0.0022(8) -.0061(8)
F10 F1- 0.0168(9) 0.0236(10) 0.0299(10) 0.0055(8) 0.0019(8) -.0051(8)
F11 F1- 0.0256(10) 0.025(1) 0.0213(9) -.0049(8) 0.0020(8) -.0043(8)
F12 F1- 0.0259(10) 0.0245(10) 0.0182(9) 0.0065(8) 0.0006(8) 0.0048(8)
F13 F1- 0.0256(11) 0.0204(9) 0.0199(9) -.0002(8) 0.0009(8) -.0020(8)
F14 F1- 0.0281(12) 0.023(1) 0.0202(10) -.0035(8) -.0010(9) -.0028(8)
Na1 Na1+ 0.0302(13) 0.046(2) 0.050(2) 0.0043(11) 0.0160(12) 0.0143(12)
Na2 Na1+ 0.0328(13) 0.0293(12) 0.052(2) -.002(1) -.0066(12) -.0182(10)
Na3 Na1+ 0.049(2) 0.0404(15) 0.061(2) -.0148(11) 0.024(2) -.0182(12)
Na4 Na1+ 0.038(2) 0.0313(12) 0.048(2) 0 0.0168(13) 0
Na5 Na1+ 0.0271(8) 0.0280(8) 0.0362(9) -.0046(6) 0.0019(7) -.0099(6)
Na6 Na1+ 0.0368(9) 0.0603(12) 0.0203(8) 0.0104(8) -.0014(7) -.0119(7)
Cr1 Cr3+ 0.0137(4) 0.0154(3) 0.0108(3) 0.0009(2) 0.0023(3) 0.0012(2)
Cr2 Cr3+ 0.0135(4) 0.0154(3) 0.0113(4) 0 0.0019(3) 0
Cr3 Cr3+ 0.0121(2) 0.0112(2) 0.0162(2) -.0011(2) 0.0015(2) -.0003(2)
Co1 Co2+ 0.0116(2) 0.0132(2) 0.0147(2) 0.00017(14) 0.00205(13) 0.00042(14)
Co2 Co2+ 0.0125(2) 0.0124(2) 0.0141(2) 0.00085(14) 0.00296(14) 0.00008(14)
#End of TTdata_401863-ICSD