
#(C) 2019 by FIZ Karlsruhe - Leibniz Institute for Information Infrastructure.  All rights reserved.
data_40249-ICSD
_database_code_ICSD 40249
_audit_creation_date 1999-11-30
_chemical_name_systematic 'Potassium trisodium tungstate'
_chemical_formula_structural 'K Na3 (W O5)'
_chemical_formula_sum 'K1 Na3 O5 W1'
_exptl_crystal_density_diffrn 4.08
_publ_section_title

;
Ein Oxowolframat mit "Kanalsruktur": K Na3 W O5. (Mit einer Bemerkung ueber
den Aufbau von Na4 W O5)
;
loop_
_citation_id
_citation_journal_full
_citation_year
_citation_journal_volume
_citation_page_first
_citation_page_last
_citation_journal_id_ASTM
primary 'Zeitschrift fuer Anorganische und Allgemeine Chemie (1950) (DE)' 1989
573 143 156 ZAACAB
loop_
_publ_author_name
'Hoffmann, R.'
'Hoppe, R.'
_cell_length_a 9.078(3)
_cell_length_b 7.539(2)
_cell_length_c 9.118(3)
_cell_angle_alpha 90.
_cell_angle_beta 104.07(4)
_cell_angle_gamma 90.
_cell_volume 605.31
_cell_formula_units_Z 4
_symmetry_space_group_name_H-M 'C 1 2/m 1'
_symmetry_Int_Tables_number 12
_refine_ls_R_factor_all 0.049
loop_
_symmetry_equiv_pos_site_id
_symmetry_equiv_pos_as_xyz
1 '-x, y, -z'
2 '-x, -y, -z'
3 'x, -y, z'
4 'x, y, z'
5 '-x+1/2, y+1/2, -z'
6 '-x+1/2, -y+1/2, -z'
7 'x+1/2, -y+1/2, z'
8 'x+1/2, y+1/2, z'
loop_
_atom_type_symbol
_atom_type_oxidation_number
W6+ 6
K1+ 1
Na1+ 1
O2- -2
loop_
_atom_site_label
_atom_site_type_symbol
_atom_site_symmetry_multiplicity
_atom_site_Wyckoff_symbol
_atom_site_fract_x
_atom_site_fract_y
_atom_site_fract_z
_atom_site_B_iso_or_equiv
_atom_site_occupancy
_atom_site_attached_hydrogens
W1 W6+ 4 i 0.6912(1) 0 0.2565(1) . 1. 0
K1 K1+ 4 h 0 0.2510(4) 0.5 . 1. 0
Na1 Na1+ 4 i 0.8090(6) 0 0.7255(6) . 1. 0
Na2 Na1+ 8 j 0.4032(4) 0.2446(5) 0.1132(4) . 1. 0
O1 O2- 4 i 0.4815(10) 0 0.2585(11) 0.0143(18) 1. 0
O2 O2- 8 j 0.6649(6) 0.2147(8) 0.1547(7) 0.0104(11) 1. 0
O3 O2- 4 i 0.1058(11) 0 0.7521(12) 0.0182(20) 1. 0
O4 O2- 4 i 0.2549(11) 0 0.5404(12) 0.20(2) 1. 0
loop_
_atom_site_aniso_label
_atom_site_aniso_type_symbol
_atom_site_aniso_U_11
_atom_site_aniso_U_22
_atom_site_aniso_U_33
_atom_site_aniso_U_12
_atom_site_aniso_U_13
_atom_site_aniso_U_23
W1 W6+ 0.0053(2) 0.0106(2) 0.0062(2) 0 0.0026(2) 0
K1 K1+ 0.0185(12) 0.0215(14) 0.0149(13) 0 0.0044(11) 0
Na1 Na1+ 0.0132(20) 0.0074(19) 0.0041(21) 0 0.0027(18) 0
Na2 Na1+ 0.0131(22) 0.0183(17) 0.0145(17) 0.0021(14) 0.0062(14) -.0008(15)
#End of TTdata_40249-ICSD