
#(C) 2019 by FIZ Karlsruhe - Leibniz Institute for Information Infrastructure.  All rights reserved.
data_40256-ICSD
_database_code_ICSD 40256
_audit_creation_date 1999-11-30
_chemical_name_systematic 'Sodium potassium iron zinc oxide (1.3/.6/10.1/.9/17)'
_chemical_formula_structural 'Na1.3 K.6 Fe10.1 Zn.9 O17'
_chemical_formula_sum 'Fe10.1 K0.6 Na1.3 O17 Zn0.9'
_chemical_name_structure_type KAl10.67O17
_exptl_crystal_density_diffrn 4.3
_publ_section_title

;
Synthese, structure cristalline, condoctivite ionique, et proprietes
magnetiques d'un nouveau ferrite der type alumine beta" Na1.3 K.6 Fe10.1 Zn.9
O17
;
loop_
_citation_id
_citation_journal_full
_citation_year
_citation_journal_volume
_citation_page_first
_citation_page_last
_citation_journal_id_ASTM
primary 'Journal of Solid State Chemistry' 1989 81 181 191 JSSCBI
loop_
_publ_author_name
'Vincent, H.'
'Bekka, A.'
'Anne, M.'
'Joubert, J.C.'
_cell_length_a 5.947(1)
_cell_length_b 5.947(1)
_cell_length_c 35.830(10)
_cell_angle_alpha 90.
_cell_angle_beta 90.
_cell_angle_gamma 120.
_cell_volume 1097.42
_cell_formula_units_Z 3
_symmetry_space_group_name_H-M 'R -3 m H'
_symmetry_Int_Tables_number 166
_refine_ls_R_factor_all 0.033
loop_
_symmetry_equiv_pos_site_id
_symmetry_equiv_pos_as_xyz
1 'x-y, -y, -z'
2 '-x, -x+y, -z'
3 'y, x, -z'
4 'x-y, x, -z'
5 'y, -x+y, -z'
6 '-x, -y, -z'
7 '-x+y, y, z'
8 'x, x-y, z'
9 '-y, -x, z'
10 '-x+y, -x, z'
11 '-y, x-y, z'
12 'x, y, z'
13 'x-y+2/3, -y+1/3, -z+1/3'
14 '-x+2/3, -x+y+1/3, -z+1/3'
15 'y+2/3, x+1/3, -z+1/3'
16 'x-y+2/3, x+1/3, -z+1/3'
17 'y+2/3, -x+y+1/3, -z+1/3'
18 '-x+2/3, -y+1/3, -z+1/3'
19 '-x+y+2/3, y+1/3, z+1/3'
20 'x+2/3, x-y+1/3, z+1/3'
21 '-y+2/3, -x+1/3, z+1/3'
22 '-x+y+2/3, -x+1/3, z+1/3'
23 '-y+2/3, x-y+1/3, z+1/3'
24 'x+2/3, y+1/3, z+1/3'
25 'x-y+1/3, -y+2/3, -z+2/3'
26 '-x+1/3, -x+y+2/3, -z+2/3'
27 'y+1/3, x+2/3, -z+2/3'
28 'x-y+1/3, x+2/3, -z+2/3'
29 'y+1/3, -x+y+2/3, -z+2/3'
30 '-x+1/3, -y+2/3, -z+2/3'
31 '-x+y+1/3, y+2/3, z+2/3'
32 'x+1/3, x-y+2/3, z+2/3'
33 '-y+1/3, -x+2/3, z+2/3'
34 '-x+y+1/3, -x+2/3, z+2/3'
35 '-y+1/3, x-y+2/3, z+2/3'
36 'x+1/3, y+2/3, z+2/3'
loop_
_atom_type_symbol
_atom_type_oxidation_number
Fe3+ 3
Zn2+ 2
Fe3+ 3
O2- -2
Na1+ 1
K1+ 1
loop_
_atom_site_label
_atom_site_type_symbol
_atom_site_symmetry_multiplicity
_atom_site_Wyckoff_symbol
_atom_site_fract_x
_atom_site_fract_y
_atom_site_fract_z
_atom_site_B_iso_or_equiv
_atom_site_occupancy
_atom_site_attached_hydrogens
Fe1 Fe3+ 18 h 0.16889(5) -.16889(5) -.06991(1) . 1. 0
Fe2 Fe3+ 6 c 0 0 0.35041(2) . 0.55 0
Zn1 Zn2+ 6 c 0 0 0.35041(2) . 0.45 0
Fe3 Fe3+ 6 c 0 0 0.44982(2) . 1. 0
Fe4 Fe3+ 3 a 0 0 0 . 1. 0
O1 O2- 18 h 0.15604(29) -.15604(29) 0.03389(6) . 1. 0
O2 O2- 18 h 0.16404(26) -.16404(26) 0.23599(6) . 1. 0
O3 O2- 6 c 0 0 0.29639(13) . 1. 0
O4 O2- 6 c 0 0 0.09588(13) . 1. 0
O5 O2- 3 b 0 0 0.5 . 1. 0
Na1 Na1+ 18 h 0.700(3) 0.300(3) 0.1635(2) . 0.217 0
K1 K1+ 18 h 0.700(3) 0.300(3) 0.1635(2) . 0.1 0
loop_
_atom_site_aniso_label
_atom_site_aniso_type_symbol
_atom_site_aniso_U_11
_atom_site_aniso_U_22
_atom_site_aniso_U_33
_atom_site_aniso_U_12
_atom_site_aniso_U_13
_atom_site_aniso_U_23
Fe1 Fe3+ 0.0050(2) 0.0050(2) 0.0018(2) 0.0027(2) 0.0003(1) -.0003(1)
Fe2 Fe3+ 0.0047(2) 0.0047(2) 0.0005(3) 0.0024(1) 0 0
Zn1 Zn2+ 0.0047(2) 0.0047(2) 0.0005(3) 0.0024(1) 0 0
Fe3 Fe3+ 0.0054(2) 0.0054(2) 0.0001(2) 0.0027(1) 0 0
Fe4 Fe3+ 0.0051(3) 0.0051(3) 0.0001(3) 0.0026(1) 0 0
O1 O2- 0.0047(8) 0.0047(8) 0.0001(3) 0.0013(8) -.0008(3) 0.0008(3)
O2 O2- 0.0045(8) 0.0045(8) 0.0032(8) 0.0024(8) 0.0009(3) -.0009(3)
O3 O2- 0.0055(12) 0.0055(12) 0.0030(14) 0.0028(6) 0 0
O4 O2- 0.0040(12) 0.0040(12) 0.0015(7) 0.0020(6) 0 0
O5 O2- 0.0423(47) 0.0423(47) 0.0024(11) 0.0212(24) 0 0
Na1 Na1+ 0.130(11) 0.130(11) 0.0295(37) -0.086(13) 0.0502(57) -.0502(57)
K1 K1+ 0.130(11) 0.130(11) 0.0295(37) -0.086(13) 0.0502(57) -.0502(57)
#End of TTdata_40256-ICSD