
#(C) 2019 by FIZ Karlsruhe - Leibniz Institute for Information Infrastructure.  All rights reserved.
data_40276-ICSD
_database_code_ICSD 40276
_audit_creation_date 1999-11-30
_chemical_name_systematic 'Pentasodium trihydrogen selenate(VI) dihydrate'
_chemical_formula_structural 'Na5 H3 (Se O4)4 (H2 O)2'
_chemical_formula_sum 'H7 Na5 O18 Se4'
_chemical_name_structure_type Na5H3(SeO4)4(H2O)2
_exptl_crystal_density_diffrn 2.97
_publ_section_title
'Structure and vibrational spectra of Na5 H3 (Se O4)4 * 2(H2 O) crystal'
loop_
_citation_id
_citation_journal_full
_citation_year
_citation_journal_volume
_citation_page_first
_citation_page_last
_citation_journal_id_ASTM
primary 'Journal of Molecular Structure' 1989 213 51 61 JMOSB4
loop_
_publ_author_name
'Baran, J.'
'Lis, T.'
'Starynowicz, P.'
_cell_length_a 5.959(3)
_cell_length_b 7.268(4)
_cell_length_c 9.958(4)
_cell_angle_alpha 102.50(3)
_cell_angle_beta 98.71(4)
_cell_angle_gamma 100.36(4)
_cell_volume 405.98
_cell_formula_units_Z 1
_symmetry_space_group_name_H-M 'P -1'
_symmetry_Int_Tables_number 2
_refine_ls_R_factor_all 0.0295
loop_
_symmetry_equiv_pos_site_id
_symmetry_equiv_pos_as_xyz
1 '-x, -y, -z'
2 'x, y, z'
loop_
_atom_type_symbol
_atom_type_oxidation_number
Se6+ 6
O2- -2
Na1+ 1
H1+ 1
loop_
_atom_site_label
_atom_site_type_symbol
_atom_site_symmetry_multiplicity
_atom_site_Wyckoff_symbol
_atom_site_fract_x
_atom_site_fract_y
_atom_site_fract_z
_atom_site_B_iso_or_equiv
_atom_site_occupancy
_atom_site_attached_hydrogens
Se1 Se6+ 2 i 0.74916(7) 0.31156(5) 0.62733(3) . 1. 0
Se2 Se6+ 2 i 0.58810(7) 0.20558(5) 0.17854(3) . 1. 0
O1 O2- 2 i 0.4859(5) 0.1661(4) 0.5556(3) . 1. 0
O2 O2- 2 i 0.9435(5) 0.1824(4) 0.6036(3) . 1. 0
O3 O2- 2 i 0.7754(6) 0.4858(4) 0.5487(3) . 1. 0
O4 O2- 2 i 0.7431(6) 0.3901(4) 0.7913(3) . 1. 0
O5 O2- 2 i 0.6882(6) 0.4387(4) 0.2789(3) . 1. 0
O6 O2- 2 i 0.7791(6) 0.0873(5) 0.2269(4) . 1. 0
O7 O2- 2 i 0.5868(7) 0.2314(5) 0.0228(3) . 1. 0
O8 O2- 2 i 0.3338(6) 0.1247(5) 0.2073(3) . 1. 0
O9 O2- 2 i 0.9060(7) 0.7023(5) 0.0373(4) . 1. 0
Na1 Na1+ 1 a 0 0 0 . 1. 0
Na2 Na1+ 2 i 0.8686(3) 0.8293(3) 0.6037(2) . 1. 0
Na3 Na1+ 2 i 0.3430(4) 0.2598(3) 0.8069(2) . 1. 0
H1 H1+ 1 f 0.5 0 0.5 8.80(35) 1. 0
H2 H1+ 2 i 0.742(10) 0.433(7) 0.375(2) 4.10(16) 1. 0
H3 H1+ 2 i 0.998(14) 0.658(9) 0.108(6) 12.70(34) 1. 0
H4 H1+ 2 i 0.835(14) 0.598(7) 0.954(5) 11.90(32) 1. 0
loop_
_atom_site_aniso_label
_atom_site_aniso_type_symbol
_atom_site_aniso_U_11
_atom_site_aniso_U_22
_atom_site_aniso_U_33
_atom_site_aniso_U_12
_atom_site_aniso_U_13
_atom_site_aniso_U_23
Se1 Se6+ 0.0108(2) 0.0097(2) 0.0116(2) 0.0027(2) 0.0021(2) 0.0020(2)
Se2 Se6+ 0.0117(2) 0.0153(2) 0.0122(2) 0.0036(2) 0.0007(2) 0.0029(2)
O1 O2- 0.0125(13) 0.0132(12) 0.0310(14) 0.008(10) -.0001(11) 0.0014(10)
O2 O2- 0.0181(14) 0.0155(12) 0.0229(13) 0.0079(11) 0.0064(11) 0.0033(10)
O3 O2- 0.0295(16) 0.0129(11) 0.0192(12) 0.0023(12) 0.0046(12) 0.0077(10)
O4 O2- 0.0240(15) 0.0230(13) 0.010(1) 0.0079(12) 0.0025(11) 0.0013(9)
O5 O2- 0.0300(17) 0.0137(12) 0.0188(12) 0.0015(12) -.0015(12) 0.0034(10)
O6 O2- 0.0228(16) 0.0217(14) 0.0353(16) 0.0118(13) -.0083(14) 0.0039(12)
O7 O2- 0.0323(19) 0.0399(18) 0.0127(11) 0.0017(15) 0.0059(12) 0.0091(12)
O8 O2- 0.0174(14) 0.0279(15) 0.0224(13) 0.0014(12) 0.0090(12) 0.0040(11)
O9 O2- 0.0309(18) 0.0279(16) 0.0275(15) 0.0146(15) -.0008(14) 0.0020(13)
Na1 Na1+ 0.0616(24) 0.0401(17) 0.0361(15) -.0217(17) -.0002(16) 0.0136(13)
Na2 Na1+ 0.0168(8) 0.0183(7) 0.0201(7) 0.0048(6) 0.0032(6) 0.0044(6)
Na3 Na1+ 0.0311(11) 0.0268(9) 0.0340(9) 0.0032(8) 0.0120(9) 0.0128(7)
#End of TTdata_40276-ICSD