
#(C) 2019 by FIZ Karlsruhe - Leibniz Institute for Information Infrastructure.  All rights reserved.
data_4029-ICSD
_database_code_ICSD 4029
_audit_creation_date 1980-01-01
_audit_update_record 2015-02-01
_chemical_name_systematic 'Trisodium hexafluoroaluminate'
_chemical_formula_structural 'Na3 (Al F6)'
_chemical_formula_sum 'Al1 F6 Na3'
_chemical_name_structure_type Perovskite-Na3AlF6
_chemical_name_mineral Cryolite
_exptl_crystal_density_diffrn 2.97
_publ_section_title 'Refinement of the crystal structure of cryolite'
loop_
_citation_id
_citation_journal_full
_citation_year
_citation_journal_volume
_citation_page_first
_citation_page_last
_citation_journal_id_ASTM
primary 'Canadian Mineralogist' 1975 13 377 382 CAMIA6
loop_
_publ_author_name
'Hawthorne, F.C.'
'Ferguson, R.B.'
_cell_length_a 5.4024(2)
_cell_length_b 5.5959(2)
_cell_length_c 7.7564(3)
_cell_angle_alpha 90.
_cell_angle_beta 90.278(1)
_cell_angle_gamma 90.
_cell_volume 234.48
_cell_formula_units_Z 2
_symmetry_space_group_name_H-M 'P 1 21/n 1'
_symmetry_Int_Tables_number 14
_refine_ls_R_factor_all 0.033
loop_
_symmetry_equiv_pos_site_id
_symmetry_equiv_pos_as_xyz
1 '-x+1/2, y+1/2, -z+1/2'
2 '-x, -y, -z'
3 'x+1/2, -y+1/2, z+1/2'
4 'x, y, z'
loop_
_atom_type_symbol
_atom_type_oxidation_number
Al3+ 3
Na1+ 1
F1- -1
loop_
_atom_site_label
_atom_site_type_symbol
_atom_site_symmetry_multiplicity
_atom_site_Wyckoff_symbol
_atom_site_fract_x
_atom_site_fract_y
_atom_site_fract_z
_atom_site_B_iso_or_equiv
_atom_site_occupancy
_atom_site_attached_hydrogens
Al1 Al3+ 2 a 0 0 0 . 1. 0
Na1 Na1+ 2 b 0 0 0.5 . 1. 0
Na2 Na1+ 4 e 0.5133(2) -.0519(2) 0.2474(1) . 1. 0
F1 F1- 4 e 0.1026(2) 0.0455(2) 0.2194(2) . 1. 0
F2 F1- 4 e -.2732(2) 0.1737(2) 0.0462(2) . 1. 0
F3 F1- 4 e 0.1634(2) 0.2690(2) -.0630(2) . 1. 0
loop_
_atom_site_aniso_label
_atom_site_aniso_type_symbol
_atom_site_aniso_beta_11
_atom_site_aniso_beta_22
_atom_site_aniso_beta_33
_atom_site_aniso_beta_12
_atom_site_aniso_beta_13
_atom_site_aniso_beta_23
Al1 Al3+ 0.00558(23) 0.00521(23) 0.00286(11) 0 0.00002(12) 0
Na1 Na1+ 0.00919(35) 0.00855(35) 0.00448(17) 0 -.0003(2) 0
Na2 Na1+ 0.01234(29) 0.01114(29) 0.00785(15) -.0018(2) 0.00002(16) 0.00015(17)
F1 F1- 0.01306(41) 0.01275(43) 0.00339(17) 0.00036(33) -.0016(2) -.0008(2)
F2 F1- 0.00935(38) 0.01091(39) 0.00647(20) 0.00438(31) 0.00177(21) 0.00083(23)
F3 F1- 0.01139(40) 0.00847(38) 0.00737(22) -.0034(3) -.0006(2) 0.00239(23)
#End of TTdata_4029-ICSD