
#(C) 2019 by FIZ Karlsruhe - Leibniz Institute for Information Infrastructure.  All rights reserved.
data_403004-ICSD
_database_code_ICSD 403004
_audit_creation_date 1995-10-17
_chemical_name_systematic 'Pentasodium trimanganese(III) fluoride'
_chemical_formula_structural 'Na5 Mn3 F14'
_chemical_formula_sum 'F14 Mn3 Na5'
_exptl_crystal_density_diffrn 3.24
_publ_section_title 'On the structure of Na5 Mn3 F14'
loop_
_citation_id
_citation_journal_full
_citation_year
_citation_journal_volume
_citation_page_first
_citation_page_last
_citation_journal_id_ASTM
primary 'Zeitschrift fuer Kristallographie' 1995 210 489 493 ZEKRDZ
loop_
_publ_author_name
'Carlson, S.'
'Norrestam, R.'
_cell_length_a 12.444(2)
_cell_length_b 7.487(1)
_cell_length_c 12.017(2)
_cell_angle_alpha 90.
_cell_angle_beta 90.
_cell_angle_gamma 90.
_cell_volume 1119.6
_cell_formula_units_Z 4
_symmetry_space_group_name_H-M 'P n a m'
_symmetry_Int_Tables_number 62
_refine_ls_R_factor_all 0.022
loop_
_symmetry_equiv_pos_site_id
_symmetry_equiv_pos_as_xyz
1 'x+1/2, -y+1/2, z'
2 'x, y, -z+1/2'
3 '-x+1/2, y+1/2, z+1/2'
4 '-x, -y, -z'
5 '-x+1/2, y+1/2, -z'
6 '-x, -y, z+1/2'
7 'x+1/2, -y+1/2, -z+1/2'
8 'x, y, z'
loop_
_atom_type_symbol
_atom_type_oxidation_number
F1- -1
Na1+ 1
Mn3+ 3
loop_
_atom_site_label
_atom_site_type_symbol
_atom_site_symmetry_multiplicity
_atom_site_Wyckoff_symbol
_atom_site_fract_x
_atom_site_fract_y
_atom_site_fract_z
_atom_site_B_iso_or_equiv
_atom_site_occupancy
_atom_site_attached_hydrogens
F1 F1- 8 d -.08510(18) 0.42501(33) 0.35726(17) . 1. 0
F2 F1- 4 c 0.19860(22) 0.57972(39) 0.25 . 1. 0
F3 F1- 8 d 0.60755(17) 0.14297(33) 0.44515(17) . 1. 0
F4 F1- 4 c -.10915(22) -.26321(37) 0.25 . 1. 0
F5 F1- 8 d 0.28355(17) 0.44690(28) 0.63977(17) . 1. 0
F6 F1- 8 d 0.05998(16) 0.70102(31) 0.43607(17) . 1. 0
F7 F1- 4 c 0.76178(23) 0.24688(35) 0.25 . 1. 0
F8 F1- 4 c 0.48275(24) 0.43691(41) 0.25 . 1. 0
F9 F1- 8 d 0.34122(16) 0.50005(37) 0.09524(18) . 1. 0
Na1 Na1+ 4 c 0.58431(15) 0.17840(29) 0.25 . 1. 0
Na2 Na1+ 8 d 0.23595(12) 0.72679(22) -.00163(16) . 1. 0
Na3 Na1+ 4 c 0.07729(14) 0.79315(31) 0.25 . 1. 0
Na4 Na1+ 8 d 0.01386(29) 0.02193(51) 0.02216(27) 0.02984(89) 0.5 0
Mn1 Mn3+ 4 c 0.33812(5) 0.50173(12) 0.25 . 1. 0
Mn2 Mn3+ 4 b 0 0.5 0 . 1. 0
Mn3 Mn3+ 4 c 0.31488(5) -.00006(11) 0.25 . 1. 0
loop_
_atom_site_aniso_label
_atom_site_aniso_type_symbol
_atom_site_aniso_U_11
_atom_site_aniso_U_22
_atom_site_aniso_U_33
_atom_site_aniso_U_12
_atom_site_aniso_U_13
_atom_site_aniso_U_23
F1 F1- 0.0376(13) 0.0236(12) 0.0233(12) 0.0087(10) -.0209(11) -.0059(11)
F2 F1- 0.0136(14) 0.0130(15) 0.0342(18) 0.0030(12) 0 0
F3 F1- 0.0193(11) 0.0323(14) 0.0190(12) -.01276(99) 0.00117(87) 0.00205(99)
F4 F1- 0.0173(15) 0.0097(18) 0.0525(24) 0.0011(13) 0 0
F5 F1- 0.0319(13) 0.0262(13) 0.0209(12) 0.01011(94) 0.0082(10) -.00498(96)
F6 F1- 0.0213(11) 0.0192(11) 0.0212(12) -.00745(97) -.00030(89) 0.0067(10)
F7 F1- 0.0126(14) 0.0093(16) 0.0658(27) -.0017(13) 0 0
F8 F1- 0.0128(15) 0.0110(15) 0.0694(26) 0.0022(12) 0 0
F9 F1- 0.0304(11) 0.0310(13) 0.01624(99) -.0030(12) 0.00524(92) -.0061(12)
Na1 Na1+ 0.01668(98) 0.0182(13) 0.0205(11) 0.00175(84) 0 0
Na2 Na1+ 0.01789(78) 0.02464(92) 0.0396(10) -.00471(70) 0.00278(75) -.00602(73)
Na3 Na1+ 0.01326(93) 0.015(1) 0.0217(12) 0.00318(76) 0 0
Mn1 Mn3+ 0.00918(35) 0.00649(37) 0.01426(37) 0.00086(33) 0 0
Mn2 Mn3+ 0.00899(37) 0.00958(38) 0.00995(37) -.00076(34) 0.00000(25) -.00055(35)
Mn3 Mn3+ 0.00966(35) 0.00657(37) 0.00896(36) -.00070(32) 0 0
#End of TTdata_403004-ICSD