
#(C) 2019 by FIZ Karlsruhe - Leibniz Institute for Information Infrastructure.  All rights reserved.
data_404446-ICSD
_database_code_ICSD 404446
_audit_creation_date 2005-10-01
_audit_update_record 2013-02-01
_chemical_name_systematic
'Sodium praseodymium aluminum oxide (0.78/0.26/11/17) - beta'
_chemical_formula_structural 'Na0.78 Pr0.26 Al11 O17'
_chemical_formula_sum 'Al11 Na0.78 O17 Pr0.26'
_exptl_crystal_density_diffrn 3.4
_publ_section_title
'Dependence of Pr3+ distributions on the composition of Pr3+ beta-alumina'
loop_
_citation_id
_citation_journal_full
_citation_year
_citation_journal_volume
_citation_page_first
_citation_page_last
_citation_journal_id_ASTM
primary 'Journal of Solid State Chemistry' 1996 124 169 175 JSSCBI
loop_
_publ_author_name
'Koehler, J.'
'Urland, W.'
_cell_length_a 5.6088(15)
_cell_length_b 5.6088(15)
_cell_length_c 33.553(12)
_cell_angle_alpha 90.
_cell_angle_beta 90.
_cell_angle_gamma 120.
_cell_volume 914.12
_cell_formula_units_Z 3
_symmetry_space_group_name_H-M 'R -3 m H'
_symmetry_Int_Tables_number 166
_refine_ls_R_factor_all 0.0973
loop_
_symmetry_equiv_pos_site_id
_symmetry_equiv_pos_as_xyz
1 'x-y, -y, -z'
2 '-x, -x+y, -z'
3 'y, x, -z'
4 'x-y, x, -z'
5 'y, -x+y, -z'
6 '-x, -y, -z'
7 '-x+y, y, z'
8 'x, x-y, z'
9 '-y, -x, z'
10 '-x+y, -x, z'
11 '-y, x-y, z'
12 'x, y, z'
13 'x-y+2/3, -y+1/3, -z+1/3'
14 '-x+2/3, -x+y+1/3, -z+1/3'
15 'y+2/3, x+1/3, -z+1/3'
16 'x-y+2/3, x+1/3, -z+1/3'
17 'y+2/3, -x+y+1/3, -z+1/3'
18 '-x+2/3, -y+1/3, -z+1/3'
19 '-x+y+2/3, y+1/3, z+1/3'
20 'x+2/3, x-y+1/3, z+1/3'
21 '-y+2/3, -x+1/3, z+1/3'
22 '-x+y+2/3, -x+1/3, z+1/3'
23 '-y+2/3, x-y+1/3, z+1/3'
24 'x+2/3, y+1/3, z+1/3'
25 'x-y+1/3, -y+2/3, -z+2/3'
26 '-x+1/3, -x+y+2/3, -z+2/3'
27 'y+1/3, x+2/3, -z+2/3'
28 'x-y+1/3, x+2/3, -z+2/3'
29 'y+1/3, -x+y+2/3, -z+2/3'
30 '-x+1/3, -y+2/3, -z+2/3'
31 '-x+y+1/3, y+2/3, z+2/3'
32 'x+1/3, x-y+2/3, z+2/3'
33 '-y+1/3, -x+2/3, z+2/3'
34 '-x+y+1/3, -x+2/3, z+2/3'
35 '-y+1/3, x-y+2/3, z+2/3'
36 'x+1/3, y+2/3, z+2/3'
loop_
_atom_type_symbol
_atom_type_oxidation_number
Al3+ 3
O2- -2
Na1+ 1
Pr3+ 3
loop_
_atom_site_label
_atom_site_type_symbol
_atom_site_symmetry_multiplicity
_atom_site_Wyckoff_symbol
_atom_site_fract_x
_atom_site_fract_y
_atom_site_fract_z
_atom_site_B_iso_or_equiv
_atom_site_occupancy
_atom_site_attached_hydrogens
Al1 Al3+ 3 a 0. 0. 0. 0.0085(10) 1 0
Al2 Al3+ 6 c 0. 0. 0.35015(9) 0.0090(7) 1 0
Al3 Al3+ 18 h 0.3348(3) 0.1674(2) 0.07159(5) 0.0081(6) 1 0
Al4 Al3+ 6 c 0. 0. 0.45077(8) 0.0077(8) 1 0
O1 O2- 18 h 0.1557(5) 0.3114(9) 0.03432(14) 0.0103(10) 1 0
O2 O2- 6 c 0. 0. 0.2951(2) 0.012(2) 1 0
O3 O2- 6 c 0. 0. 0.0970(2) 0.010(2) 1 0
O4 O2- 18 h 0.1637(4) 0.3274(9) 0.23486(13) 0.0125(11) 1 0
O5 O2- 18 g 0.4047(36) 0.6667 0.1667 0.012(5) 0.17 0
Na1 Na1+ 6 c 0. 0. 0.1695(25) 0.035(23) 0.39(20) 0
Pr1 Pr3+ 6 c 0. 0. 0.1766(17) 0.013(8) 0.08(4) 0
Pr2 Pr3+ 9 d 0.8333 0.1667 0.1667 0.069(18) 0.032(5) 0
loop_
_atom_site_aniso_label
_atom_site_aniso_type_symbol
_atom_site_aniso_U_11
_atom_site_aniso_U_22
_atom_site_aniso_U_33
_atom_site_aniso_U_12
_atom_site_aniso_U_13
_atom_site_aniso_U_23
Al1 Al3+ 0.0052(13) 0.0052(13) 0.015(2) 0.0026(7) 0. 0.
Al2 Al3+ 0.0082(10) 0.0082(10) 0.0105(15) 0.0041(5) 0. 0.
Al3 Al3+ 0.0080(10) 0.0083(8) 0.0077(10) 0.0040(5) 0.0003(5) 0.0001(3)
Al4 Al3+ 0.0086(11) 0.0086(11) 0.0060(14) 0.0043(5) 0. 0.
O1 O2- 0.011(2) 0.014(2) 0.006(2) 0.0072(11) -0.0010(6) -0.0020(13)
O2 O2- 0.013(2) 0.013(2) 0.011(3) 0.0064(12) 0. 0.
O3 O2- 0.008(2) 0.008(2) 0.013(4) 0.0040(12) 0. 0.
O4 O2- 0.012(2) 0.018(2) 0.009(2) 0.0090(12) -0.0003(7) -0.0007(14)
O5 O2- 0.017(7) 0.011(7) 0.007(5) 0.005(3) 0.000(2) 0.001(4)
Na1 Na1+ 0.052(31) 0.052(31) 0.002(17) 0.026(15) 0. 0.
Pr1 Pr3+ 0.015(10) 0.015(10) 0.010(11) 0.007(5) 0. 0.
Pr2 Pr3+ 0.061(17) 0.061(17) 0.029(15) -0.012(17) 0.008(8) -0.008(8)
#End of TTdata_404446-ICSD