
#(C) 2019 by FIZ Karlsruhe - Leibniz Institute for Information Infrastructure.  All rights reserved.
data_40522-ICSD
_database_code_ICSD 40522
_audit_creation_date 1999-11-30
_audit_update_record 2007-08-01
_chemical_name_systematic 'Sodium aluminum fluoride phosphate(V)'
_chemical_formula_structural 'Na Al F (P O4)'
_chemical_formula_sum 'Al1 F1 Na1 O4 P1'
_chemical_name_structure_type Tilasite
_chemical_name_mineral Lacroixite
_exptl_crystal_density_diffrn 3.33
_publ_section_title 'New data on lacroixite, Na Al F P O4'
loop_
_citation_id
_citation_journal_full
_citation_year
_citation_journal_volume
_citation_page_first
_citation_page_last
_citation_journal_id_ASTM
primary 'American Mineralogist' 1985 70 849 855 AMMIAY
loop_
_publ_author_name
'Lahti, S.I.'
'Pajunen, A.'
_cell_length_a 6.414(2)
_cell_length_b 8.207(2)
_cell_length_c 6.885(2)
_cell_angle_alpha 90.
_cell_angle_beta 115.47
_cell_angle_gamma 90.
_cell_volume 327.2
_cell_formula_units_Z 4
_symmetry_space_group_name_H-M 'C 1 2/c 1'
_symmetry_Int_Tables_number 15
_refine_ls_R_factor_all 0.034
loop_
_symmetry_equiv_pos_site_id
_symmetry_equiv_pos_as_xyz
1 'x, -y, z+1/2'
2 '-x, -y, -z'
3 '-x, y, -z+1/2'
4 'x, y, z'
5 'x+1/2, -y+1/2, z+1/2'
6 '-x+1/2, -y+1/2, -z'
7 '-x+1/2, y+1/2, -z+1/2'
8 'x+1/2, y+1/2, z'
loop_
_atom_type_symbol
_atom_type_oxidation_number
Al3+ 3
Na1+ 1
P5+ 5
O2- -2
F1- -1
loop_
_atom_site_label
_atom_site_type_symbol
_atom_site_symmetry_multiplicity
_atom_site_Wyckoff_symbol
_atom_site_fract_x
_atom_site_fract_y
_atom_site_fract_z
_atom_site_B_iso_or_equiv
_atom_site_occupancy
_atom_site_attached_hydrogens
Al1 Al3+ 4 a 0 0 0 . 1. 0
Na1 Na1+ 4 e 0 0.6685(2) 0.25 . 1. 0
P1 P5+ 4 e 0 0.3178(1) 0.25 . 1. 0
O1 O2- 8 f 0.0939(4) 0.2095(3) 0.1218(3) . 1. 0
O2 O2- 8 f 0.1915(4) 0.4310(3) 0.4032(3) . 1. 0
F1 F1- 4 e 0 -.0708(3) 0.25 . 1. 0
loop_
_atom_site_aniso_label
_atom_site_aniso_type_symbol
_atom_site_aniso_U_11
_atom_site_aniso_U_22
_atom_site_aniso_U_33
_atom_site_aniso_U_12
_atom_site_aniso_U_13
_atom_site_aniso_U_23
Al1 Al3+ 0.0037(5) 0.0043(5) 0.0035(5) 0.0002(4) 0.0007(4) -.0004(4)
Na1 Na1+ 0.0147(9) 0.0083(9) 0.0297(11) 0 0.0025(8) 0
P1 P5+ 0.0035(4) 0.0042(4) 0.0046(4) 0 0.0008(3) 0
O1 O2- 0.0060(9) 0.0055(9) 0.0072(9) -.0008(7) 0.0018(7) -.0007(7)
O2 O2- 0.0052(9) 0.0077(9) 0.0089(9) -.0006(7) 0.0017(7) -.0011(7)
F1 F1- 0.0099(11) 0.0055(10) 0.0049(10) 0 0.0032(8) 0
#End of TTdata_40522-ICSD