
#(C) 2019 by FIZ Karlsruhe - Leibniz Institute for Information Infrastructure.  All rights reserved.
data_40661-ICSD
_database_code_ICSD 40661
_audit_creation_date 1999-11-30
_chemical_name_systematic
'Sodium magnesium silicon disilicate (1/0.5/0.5/1) - HP'
_chemical_formula_structural 'Na (Mg0.5 Si0.5) (Si2 O6)'
_chemical_formula_sum 'Mg0.5 Na1 O6 Si2.5'
_chemical_name_structure_type Pyroxene-Omphacite
_exptl_crystal_density_diffrn 3.28
_publ_section_title
'A silica-rich sodium pyroxene phase with six-coordinated silicon'
loop_
_citation_id
_citation_journal_full
_citation_year
_citation_journal_volume
_citation_page_first
_citation_page_last
_citation_journal_id_ASTM
primary 'Nature (London, United Kingdom)' 1988 335 156 158 NATUAS
loop_
_publ_author_name
'Angel, R.J.'
'Gasparik, T.'
'Ross, M.L.'
'Finger, L.W.'
'Prewitt, C.T.'
'Hazen, R.M.'
_cell_length_a 9.418(1)
_cell_length_b 8.647(1)
_cell_length_c 5.274(1)
_cell_angle_alpha 90.
_cell_angle_beta 108.13(1)
_cell_angle_gamma 90.
_cell_volume 408.18
_cell_formula_units_Z 4
_symmetry_space_group_name_H-M 'P 1 2/n 1'
_symmetry_Int_Tables_number 13
_refine_ls_R_factor_all 0.036
loop_
_symmetry_equiv_pos_site_id
_symmetry_equiv_pos_as_xyz
1 'x+1/2, -y, z+1/2'
2 '-x+1/2, y, -z+1/2'
3 '-x, -y, -z'
4 'x, y, z'
loop_
_atom_type_symbol
_atom_type_oxidation_number
Mg2+ 2
Si4+ 4
Na1+ 1
Si4+ 4
O2- -2
loop_
_atom_site_label
_atom_site_type_symbol
_atom_site_symmetry_multiplicity
_atom_site_Wyckoff_symbol
_atom_site_fract_x
_atom_site_fract_y
_atom_site_fract_z
_atom_site_B_iso_or_equiv
_atom_site_occupancy
_atom_site_attached_hydrogens
Mg1 Mg2+ 2 f 0.75 0.6549(2) 0.25 . 1. 0
Si1 Si4+ 2 e 0.75 0.8469(2) 0.75 . 1. 0
Na1 Na1+ 2 f 0.75 0.0513(2) 0.25 . 1. 0
Na2 Na1+ 2 e 0.75 0.4567(3) 0.75 . 1. 0
Si2 Si4+ 4 g 0.0447(1) 0.8486(1) 0.2270(2) . 1. 0
Si3 Si4+ 4 g 0.0372(1) 0.6652(1) 0.7355(2) . 1. 0
O1 O2- 4 g 0.8620(3) 0.8443(3) 0.1017(4) . 1. 0
O2 O2- 4 g 0.8567(3) 0.6934(3) 0.6562(5) . 1. 0
O3 O2- 4 g 0.1234(3) 0.0146(3) 0.3077(5) . 1. 0
O4 O2- 4 g 0.0982(3) 0.4950(3) 0.7911(5) . 1. 0
O5 O2- 4 g 0.1128(3) 0.7665(3) 0.0119(5) . 1. 0
O6 O2- 4 g 0.0930(3) 0.7527(3) 0.5070(5) . 1. 0
loop_
_atom_site_aniso_label
_atom_site_aniso_type_symbol
_atom_site_aniso_beta_11
_atom_site_aniso_beta_22
_atom_site_aniso_beta_33
_atom_site_aniso_beta_12
_atom_site_aniso_beta_13
_atom_site_aniso_beta_23
Mg1 Mg2+ 0.0017(2) 0.0022(2) 0.0041(6) 0 0.0005(3) 0
Si1 Si4+ 0.0015(1) 0.0013(2) 0.0036(5) 0 0.0009(2) 0
Na1 Na1+ 0.0034(2) 0.0023(3) 0.0060(7) 0 0.0006(4) 0
Na2 Na1+ 0.0056(3) 0.0025(3) 0.0091(8) 0 -.0011(4) 0
Si2 Si4+ 0.0012(1) 0.0014(1) 0.0035(3) -.0001(1) 0.0006(1) -.0002(2)
Si3 Si4+ 0.0012(1) 0.0016(1) 0.0039(3) 0.0000(1) 0.0010(1) 0.0001(2)
O1 O2- 0.0012(3) 0.0025(3) 0.0038(8) -.0001(2) 0.0007(4) 0.0002(4)
O2 O2- 0.0012(3) 0.0021(3) 0.0030(8) 0.0002(2) 0.0001(4) -.0001(4)
O3 O2- 0.0020(3) 0.0018(3) 0.0053(9) -.0005(2) 0.0010(4) -.0004(4)
O4 O2- 0.0022(3) 0.0019(3) 0.0073(9) 0.0005(2) 0.0012(4) 0.0001(4)
O5 O2- 0.0015(3) 0.0026(3) 0.0050(9) -.0001(2) 0.0009(4) -.0012(4)
O6 O2- 0.0016(3) 0.0025(3) 0.0043(9) -.0002(3) 0.0006(4) 0.0007(4)
#End of TTdata_40661-ICSD