
#(C) 2019 by FIZ Karlsruhe - Leibniz Institute for Information Infrastructure.  All rights reserved.
data_407015-ICSD
_database_code_ICSD 407015
_audit_creation_date 1998-06-26
_chemical_name_systematic 'Disodium heptafluoroniccolovanadate(III)'
_chemical_formula_structural 'Na2 (Ni V F7)'
_chemical_formula_sum 'F7 Na2 Ni1 V1'
_chemical_name_structure_type Ca2Sb2O7
_exptl_crystal_density_diffrn 3.44
_publ_section_title

;
Die Kristallstrukturen der Vanadium-Weberite Na2 M(II) V(III) F7 (M(II)=Mn,
Ni, Cu) und von Na V F4
;
loop_
_citation_id
_citation_journal_full
_citation_year
_citation_journal_volume
_citation_page_first
_citation_page_last
_citation_journal_id_ASTM
primary 'Zeitschrift fuer Anorganische und Allgemeine Chemie (1950) (DE)' 1997
623 1614 1620 ZAACAB
loop_
_publ_author_name
'Babel, D.'
'Peschel, B.'
_cell_length_a 7.260(1)
_cell_length_b 10.319(2)
_cell_length_c 7.446(1)
_cell_angle_alpha 90.
_cell_angle_beta 90.
_cell_angle_gamma 90.
_cell_volume 557.82
_cell_formula_units_Z 4
_symmetry_space_group_name_H-M 'I m m a'
_symmetry_Int_Tables_number 74
_refine_ls_R_factor_all 0.0226
loop_
_symmetry_equiv_pos_site_id
_symmetry_equiv_pos_as_xyz
1 '-x, y+1/2, -z'
2 '-x, -y+1/2, z'
3 '-x, y, z'
4 '-x, -y, -z'
5 'x, -y+1/2, z'
6 'x, y+1/2, -z'
7 'x, -y, -z'
8 'x, y, z'
9 '-x+1/2, y, -z+1/2'
10 '-x+1/2, -y, z+1/2'
11 '-x+1/2, y+1/2, z+1/2'
12 '-x+1/2, -y+1/2, -z+1/2'
13 'x+1/2, -y, z+1/2'
14 'x+1/2, y, -z+1/2'
15 'x+1/2, -y+1/2, -z+1/2'
16 'x+1/2, y+1/2, z+1/2'
loop_
_atom_type_symbol
_atom_type_oxidation_number
Ni2+ 2
V3+ 3
F1- -1
Na1+ 1
loop_
_atom_site_label
_atom_site_type_symbol
_atom_site_symmetry_multiplicity
_atom_site_Wyckoff_symbol
_atom_site_fract_x
_atom_site_fract_y
_atom_site_fract_z
_atom_site_B_iso_or_equiv
_atom_site_occupancy
_atom_site_attached_hydrogens
Ni1 Ni2+ 4 c 0.25 0.25 0.25 . 1. 0
V1 V3+ 4 b 0 0 0.5 . 1. 0
F1 F1- 4 e 0 0.25 0.1489(4) . 1. 0
F2 F1- 8 h 0 0.4112(2) 0.7291(2) . 1. 0
F3 F1- 16 j 0.1979(2) 0.3839(1) 0.4351(2) 0.0209(3) 1. 0
Na1 Na1+ 4 d 0.25 0.25 0.75 . 1. 0
Na2 Na1+ 4 a 0 0 0 . 1. 0
loop_
_atom_site_aniso_label
_atom_site_aniso_type_symbol
_atom_site_aniso_U_11
_atom_site_aniso_U_22
_atom_site_aniso_U_33
_atom_site_aniso_U_12
_atom_site_aniso_U_13
_atom_site_aniso_U_23
Ni1 Ni2+ 0.0097(3) 0.0102(3) 0.0098(3) 0 0.0011(2) 0
V1 V3+ 0.0120(3) 0.0109(3) 0.0093(3) 0 0 -.0014(3)
F1 F1- 0.0092(12) 0.035(2) 0.0166(14) 0 0 0
F2 F1- 0.0257(10) 0.0222(10) 0.0130(9) 0 0 0.0006(8)
Na1 Na1+ 0.0284(12) 0.0288(12) 0.069(2) 0 -.0083(13) 0
Na2 Na1+ 0.0254(11) 0.059(2) 0.0200(11) 0 0 0.0183(12)
#End of TTdata_407015-ICSD