
#(C) 2019 by FIZ Karlsruhe - Leibniz Institute for Information Infrastructure.  All rights reserved.
data_407652-ICSD
_database_code_ICSD 407652
_audit_creation_date 1999-06-02
_audit_update_record 2013-02-01
_chemical_name_systematic 'Sodium aluminium tantalum oxide (1.1/2/35/70)'
_chemical_formula_structural 'Na1.08 Al2 Ta35 O70'
_chemical_formula_sum 'Al2 Na1.08 O70 Ta35'
_exptl_crystal_density_diffrn 9.05
_publ_section_title

;
M Al2 Ta35 O70 (M= Na, K, Rb), niedervalente Oxotantalate mit isolierten
kuboktaedrischen Ta6 O12-Clustern
;
loop_
_citation_id
_citation_journal_full
_citation_year
_citation_journal_volume
_citation_page_first
_citation_page_last
_citation_journal_id_ASTM
primary 'Zeitschrift fuer Anorganische und Allgemeine Chemie (1950) (DE)' 1998
624 457 460 ZAACAB
loop_
_publ_author_name
'Harbrecht, B.'
'Wagner, V.'
'Ritter, A.'
_cell_length_a 7.8015(7)
_cell_length_b 7.8015(7)
_cell_length_c 26.217(8)
_cell_angle_alpha 90.
_cell_angle_beta 90.
_cell_angle_gamma 120.
_cell_volume 1381.88
_cell_formula_units_Z 1
_symmetry_space_group_name_H-M 'P -3'
_symmetry_Int_Tables_number 147
_refine_ls_R_factor_all 0.0645
loop_
_symmetry_equiv_pos_site_id
_symmetry_equiv_pos_as_xyz
1 'x-y, x, -z'
2 'y, -x+y, -z'
3 '-x, -y, -z'
4 '-x+y, -x, z'
5 '-y, x-y, z'
6 'x, y, z'
loop_
_atom_type_symbol
_atom_type_oxidation_number
Ta3+ 3.8
Al3+ 3
Na1+ 1
O2- -2
loop_
_atom_site_label
_atom_site_type_symbol
_atom_site_symmetry_multiplicity
_atom_site_Wyckoff_symbol
_atom_site_fract_x
_atom_site_fract_y
_atom_site_fract_z
_atom_site_B_iso_or_equiv
_atom_site_occupancy
_atom_site_attached_hydrogens
Ta1 Ta3+ 6 g 0.19592(5) 0.21703(5) 0.04344(2) . 1. 0
Ta2 Ta3+ 6 g 0.35473(5) 0.46813(5) 0.23016(2) . 1. 0
Ta3 Ta3+ 6 g 0.14046(5) 0.45184(5) 0.31734(2) . 1. 0
Ta4 Ta3+ 2 d 0.3333 0.6667 0.04185(3) . 1. 0
Ta5 Ta3+ 6 g 0.62362(5) 0.54521(5) 0.13437(2) . 1. 0
Ta6 Ta3+ 2 c 0 0 0.31341 . 1. 0
Ta7 Ta3+ 6 g 0.72925(5) 0.12710(5) 0.40965(2) . 1. 0
Ta8 Ta3+ 1 b 0 0 0.5 . 1. 0
Al1 Al3+ 2 d 0.3333 0.6667 0.7063(3) . 1. 0
Na1 Na1+ 6 g 0.822(6) 0.353(6) 0.532(2) 0.7 0.18(1) 0
O1 O2- 6 g 0.5692(9) 0.7421(10) 0.0014(3) . 1. 0
O2 O2- 6 g 0.0913(10) 0.5974(9) 0.0850(3) . 1. 0
O3 O2- 6 g 0.9733(9) 0.2065(9) 0.0906(4) . 1. 0
O4 O2- 2 d 0.6667 0.3333 0.0985(6) . 1. 0
O5 O2- 6 g 0.8615(10) 0.5669(9) 0.1724(3) . 1. 0
O6 O2- 6 g 0.5686(10) 0.6962(10) 0.1814(4) . 1. 0
O7 O2- 6 g 0.0760(9) 0.8405(10) 0.2728(3) . 1. 0
O8 O2- 6 g 0.9064(10) 0.4175(10) 0.2728(4) . 1. 0
O9 O2- 6 g 0.8255(9) 0.7604(9) 0.3580(3) . 1. 0
O10 O2- 2 d 0.6667 0.3333 0.3626(6) . 1. 0
O11 O2- 6 g 0.5415(9) 0.9013(9) 0.3651(4) . 1. 0
O12 O2- 6 g 0.4918(10) 0.1071(10) 0.4407(3) . 1. 0
O13 O2- 6 g 0.0158(10) 0.8011(10) 0.4559(3) . 1. 0
loop_
_atom_site_aniso_label
_atom_site_aniso_type_symbol
_atom_site_aniso_B_11
_atom_site_aniso_B_22
_atom_site_aniso_B_33
_atom_site_aniso_B_12
_atom_site_aniso_B_13
_atom_site_aniso_B_23
Ta1 Ta3+ 0.438(9) 0.433(90) 0.258(1) 0.213(7) 0.015(9) 0.005(9)
Ta2 Ta3+ 0.448(9) 0.452(90) 0.250(1) 0.225(8) 0.013(9) 0.009(9)
Ta3 Ta3+ 0.422(9) 0.420(9) 0.314(1) 0.208(8) 0.033(9) 0.018(9)
Ta4 Ta3+ 0.505(9) 0.505(9) 0.362(21) 0.2525(90) 0 0
Ta5 Ta3+ 0.578(9) 0.525(9) 0.327(1) 0.302(80) 0.058(10) 0.032(10)
Ta6 Ta3+ 0.452(9) 0.452(9) 0.373(2) 0.226(9) 0 0
Ta7 Ta3+ 0.527(9) 0.531(9) 0.379(1) 0.273(8) 0.029(1) 0.062(1)
Ta8 Ta3+ 0.610(1) 0.610(1) 0.370(2) 0.305(1) 0 0
Al1 Al3+ 0.44(8) 0.44(8) 0.46(18) 0.22(8) 0 0
O1 O2- 0.6(2) 0.7(2) 0.4(2) 0.3(2) 0.3(2) 0.0(2)
O2 O2- 0.8(2) 0.4(2) 0.3(2) 0.3(2) 0.1(2) 0.2(2)
O3 O2- 0.6(2) 0.5(2) 0.9(3) 0.2(2) 0.0(2) -.2(2)
O4 O2- 0.8(2) 0.8(2) 0.3(4) 0.4(2) 0 0
O5 O2- 0.8(2) 0.6(2) 0.1(2) 0.3(2) 0.1(2) 0.0(2)
O6 O2- 0.9(2) 0.6(2) 1.1(3) 0.4(2) 0.1(2) 0.1(2)
O7 O2- 0.6(2) 0.7(2) 0.8(3) 0.4(2) 0.0(2) 0.3(2)
O8 O2- 0.5(2) 0.9(2) 0.7(3) 0.2(2) -.2(2) 0.1(2)
O9 O2- 0.7(2) 0.7(2) 0.2(2) 0.4(2) 0.1(2) 0.3(2)
O10 O2- 0.3(2) 0.3(2) 0.4(4) 0.15(2) 0 0
O11 O2- 0.5(2) 0.5(2) 0.8(3) 0.2(2) -.2(2) -.3(2)
O12 O2- 0.8(2) 1.0(2) 0.6(3) 0.5(2) -.1(2) 0.2(2)
O13 O2- 0.5(2) 0.7(2) 0.5(2) 0.1(2) -.3(2) 0.0(2)
#End of TTdata_407652-ICSD