
#(C) 2019 by FIZ Karlsruhe - Leibniz Institute for Information Infrastructure.  All rights reserved.
data_407708-ICSD
_database_code_ICSD 407708
_audit_creation_date 1998-06-26
_audit_update_record 2016-02-01
_chemical_name_systematic 'Sodium hexathioniobate'
_chemical_formula_structural 'Na (Nb S6)'
_chemical_formula_sum 'Na1 Nb1 S6'
_chemical_name_structure_type V3O5(HT)
_exptl_crystal_density_diffrn 3.03
_publ_section_title

;
From molecular to one-dimensional polychalcogenides: Preparation, structure
and reactivity of Na Nb S6, the first ternary alkali metal niobium
polychalcogenide exhibiting infinite anionic chains.
;
loop_
_citation_id
_citation_journal_full
_citation_year
_citation_journal_volume
_citation_page_first
_citation_page_last
_citation_journal_id_ASTM
primary 'Angewandte Chemie, International Edition in English' 1998 37 133 135
ACIEAY
loop_
_publ_author_name
'Bensch, W.'
'Naether, C.'
'Duerichen, P.'
_cell_length_a 7.451(2)
_cell_length_b 12.743(2)
_cell_length_c 7.151(2)
_cell_angle_alpha 90.
_cell_angle_beta 96.81(2)
_cell_angle_gamma 90.
_cell_volume 674.18
_cell_formula_units_Z 4
_symmetry_space_group_name_H-M 'C 1 c 1'
_symmetry_Int_Tables_number 9
_refine_ls_R_factor_all 0.0234
loop_
_symmetry_equiv_pos_site_id
_symmetry_equiv_pos_as_xyz
1 'x, -y, z+1/2'
2 'x, y, z'
3 'x+1/2, -y+1/2, z+1/2'
4 'x+1/2, y+1/2, z'
loop_
_atom_type_symbol
_atom_type_oxidation_number
Nb3+ 3
S0+ -0.667
Na1+ 1
loop_
_atom_site_label
_atom_site_type_symbol
_atom_site_symmetry_multiplicity
_atom_site_Wyckoff_symbol
_atom_site_fract_x
_atom_site_fract_y
_atom_site_fract_z
_atom_site_B_iso_or_equiv
_atom_site_occupancy
_atom_site_attached_hydrogens
Nb1 Nb3+ 4 a 0.24924(6) 0.51247(3) 0.40612(6) . 1. 0
S1 S0+ 4 a 0.5806(2) 0.52807(11) 0.3521(2) . 1. 0
S2 S0+ 4 a 0.4039(2) 0.61013(10) 0.1642(2) . 1. 0
S3 S0+ 4 a 0.3445(2) 0.63894(10) 0.6701(2) . 1. 0
S4 S0+ 4 a 0.1368(2) 0.69401(10) 0.4794(2) . 1. 0
S5 S0+ 4 a 0.0495(2) 0.35732(10) 0.4378(2) . 1. 0
S6 S0+ 4 a -.0043(2) 0.47285(10) 0.6240(2) . 1. 0
Na1 Na1+ 4 a 0.7445(4) 0.3312(2) 0.1473(5) . 1. 0
loop_
_atom_site_aniso_label
_atom_site_aniso_type_symbol
_atom_site_aniso_U_11
_atom_site_aniso_U_22
_atom_site_aniso_U_33
_atom_site_aniso_U_12
_atom_site_aniso_U_13
_atom_site_aniso_U_23
Nb1 Nb3+ 0.01136(14) 0.0117(2) 0.0066(2) -.0001(2) 0.00148(14) -.0001(2)
S1 S0+ 0.0144(5) 0.0248(6) 0.0117(7) -.0011(4) 0.0012(5) -.0017(6)
S2 S0+ 0.0201(5) 0.0133(5) 0.0101(6) -.0025(4) 0.0039(5) -.0006(5)
S3 S0+ 0.0201(5) 0.0146(5) 0.0104(6) -.0025(4) 0.0034(5) -.0019(5)
S4 S0+ 0.0243(6) 0.0151(5) 0.0146(7) 0.0056(4) 0.0052(6) 0.0018(6)
S5 S0+ 0.0206(5) 0.0160(5) 0.0113(6) -.0041(4) 0.0021(5) -.0012(5)
S6 S0+ 0.0144(5) 0.0187(5) 0.0107(7) 0.0007(4) 0.0020(5) -.0002(5)
Na1 Na1+ 0.0334(11) 0.0266(12) 0.033(2) 0.0014(10) -.0071(12) 0.0038(13)
#End of TTdata_407708-ICSD