
#(C) 2019 by FIZ Karlsruhe - Leibniz Institute for Information Infrastructure.  All rights reserved.
data_407809-ICSD
_database_code_ICSD 407809
_audit_creation_date 1998-06-26
_chemical_name_systematic 'Sodium dicesium tris(dicyanamide)'
_chemical_formula_structural 'Na Cs2 (C2 N3)3'
_chemical_formula_sum 'C6 Cs2 N9 Na1'
_exptl_crystal_density_diffrn 2.63
_cell_measurement_temperature 173.
_publ_section_title

;
Trimerisierung von Dicyanamid-Ionen C2N3- - Ionen im Festkoerper; Synthesen,
Kristallstrukturen und Eigenschaften von Na Cs2 (C2 N3)3 und Na3 C6 N9 . 3(H2
O)
;
loop_
_citation_id
_citation_journal_full
_citation_year
_citation_journal_volume
_citation_page_first
_citation_page_last
_citation_journal_id_ASTM
primary 'Zeitschrift fuer Anorganische und Allgemeine Chemie (1950) (DE)' 1998
624 91 97 ZAACAB
loop_
_publ_author_name
'Juergens, B.'
'Milius, W.'
'Morys, P.'
'Schnick, W.'
_cell_length_a 7.0001(4)
_cell_length_b 7.0001(4)
_cell_length_c 14.4929(7)
_cell_angle_alpha 90.
_cell_angle_beta 90.
_cell_angle_gamma 120.
_cell_volume 615.03
_cell_formula_units_Z 2
_symmetry_space_group_name_H-M 'P 63/m'
_symmetry_Int_Tables_number 176
_refine_ls_R_factor_all 0.0173
loop_
_symmetry_equiv_pos_site_id
_symmetry_equiv_pos_as_xyz
1 '-x+y, -x, -z+1/2'
2 '-y, x-y, -z+1/2'
3 'x, y, -z+1/2'
4 'x-y, x, -z'
5 'y, -x+y, -z'
6 '-x, -y, -z'
7 'x-y, x, z+1/2'
8 'y, -x+y, z+1/2'
9 '-x, -y, z+1/2'
10 '-x+y, -x, z'
11 '-y, x-y, z'
12 'x, y, z'
loop_
_atom_type_symbol
_atom_type_oxidation_number
Cs1+ 1
Na1+ 1
C4+ 4
N3- -3
loop_
_atom_site_label
_atom_site_type_symbol
_atom_site_symmetry_multiplicity
_atom_site_Wyckoff_symbol
_atom_site_fract_x
_atom_site_fract_y
_atom_site_fract_z
_atom_site_B_iso_or_equiv
_atom_site_occupancy
_atom_site_attached_hydrogens
Cs1 Cs1+ 4 f 0.6667 0.3333 0.57786(2) . 1. 0
Na1 Na1+ 2 b 0 0 0.5 . 1. 0
C1 C4+ 12 i 0.2015(4) 0.3421(4) 0.6716(2) . 1. 0
N1 N3- 12 i 0.1323(4) 0.3302(3) 0.5983(2) . 1. 0
N2 N3- 6 h 0.3028(5) 0.3574(6) 0.75 . 1. 0
loop_
_atom_site_aniso_label
_atom_site_aniso_type_symbol
_atom_site_aniso_U_11
_atom_site_aniso_U_22
_atom_site_aniso_U_33
_atom_site_aniso_U_12
_atom_site_aniso_U_13
_atom_site_aniso_U_23
Cs1 Cs1+ 0.01860(12) 0.01860(12) 0.0193(2) 0.00930(6) 0 0
Na1 Na1+ 0.0175(5) 0.0175(5) 0.0149(9) 0.0088(3) 0 0
C1 C4+ 0.0205(9) 0.0184(9) 0.0186(9) 0.0091(8) 0.0029(8) -.0003(9)
N1 N3- 0.0270(9) 0.0222(9) 0.0187(9) 0.0113(8) 0.0000(8) -.0018(8)
N2 N3- 0.0245(14) 0.050(2) 0.0158(13) 0.021(2) 0 0
#End of TTdata_407809-ICSD