
#(C) 2019 by FIZ Karlsruhe - Leibniz Institute for Information Infrastructure.  All rights reserved.
data_4079-ICSD
_database_code_ICSD 4079
_audit_creation_date 1980-01-01
_audit_update_record 2012-08-01
_chemical_name_systematic 'Barium disodium pentaniobium tetradecaoxide fluoride'
_chemical_formula_structural 'Ba Na2 Nb5 O14 F'
_chemical_formula_sum 'Ba1 F1 Na2 Nb5 O14'
_chemical_name_structure_type Bronze(tet)-K2.4W5O15
_exptl_crystal_density_diffrn 4.92
_publ_section_title 'Structure cristalline de Ba Na2 Nb5 O14 F'
loop_
_citation_id
_citation_journal_full
_citation_year
_citation_journal_volume
_citation_page_first
_citation_page_last
_citation_journal_id_ASTM
primary 'Bulletin de la Societe Francaise de Mineralogie et de Cristallographie'
1975 98 118 120 BUFCAE
loop_
_publ_author_name
'von der Muehll, R.'
'Ravez, J.'
_cell_length_a 12.369(3)
_cell_length_b 12.369(3)
_cell_length_c 3.928(2)
_cell_angle_alpha 90.
_cell_angle_beta 90.
_cell_angle_gamma 90.
_cell_volume 600.95
_cell_formula_units_Z 2
_symmetry_space_group_name_H-M 'P 4/m b m'
_symmetry_Int_Tables_number 127
_refine_ls_R_factor_all 0.067
loop_
_symmetry_equiv_pos_site_id
_symmetry_equiv_pos_as_xyz
1 'y+1/2, x+1/2, -z'
2 '-y+1/2, -x+1/2, -z'
3 '-y, x, -z'
4 'y, -x, -z'
5 'x+1/2, -y+1/2, -z'
6 '-x+1/2, y+1/2, -z'
7 'x, y, -z'
8 '-x, -y, -z'
9 '-y+1/2, -x+1/2, z'
10 'y+1/2, x+1/2, z'
11 'y, -x, z'
12 '-y, x, z'
13 '-x+1/2, y+1/2, z'
14 'x+1/2, -y+1/2, z'
15 '-x, -y, z'
16 'x, y, z'
loop_
_atom_type_symbol
_atom_type_oxidation_number
Na1+ 1
Ba2+ 2
Nb5+ 5
O2- -2
F1- -1
loop_
_atom_site_label
_atom_site_type_symbol
_atom_site_symmetry_multiplicity
_atom_site_Wyckoff_symbol
_atom_site_fract_x
_atom_site_fract_y
_atom_site_fract_z
_atom_site_B_iso_or_equiv
_atom_site_occupancy
_atom_site_attached_hydrogens
Na1 Na1+ 2 a 0 0 0 . 1. 0
Na2 Na1+ 4 g 0.1725(1) 0.6725(1) 0 . 0.5 0
Ba1 Ba2+ 4 g 0.1725(1) 0.6725(1) 0 . 0.5 0
Nb1 Nb5+ 2 c 0 0.5 0.5 . 1. 0
Nb2 Nb5+ 8 j 0.07432(8) 0.20971(8) 0.5 . 1. 0
O1 O2- 8 j 0.1401(8) 0.0680(7) 0.5 . 0.933 0
O2 O2- 8 j 0.3437(7) 0.0034(8) 0.5 . 0.933 0
O3 O2- 8 i 0.066(4) 0.225(2) 0 . 0.466 0
O4 O2- 8 i 0.091(2) 0.190(1) 0 . 0.466 0
O5 O2- 4 h 0.2824(6) 0.7824(6) 0.5 . 0.933 0
O6 O2- 2 d 0 0.5 0 . 0.933 0
F1 F1- 8 j 0.1401(8) 0.0680(7) 0.5 . 0.067 0
F2 F1- 8 j 0.3437(7) 0.0034(8) 0.5 . 0.067 0
F3 F1- 8 i 0.066(4) 0.225(2) 0 . 0.033 0
F4 F1- 8 i 0.091(2) 0.190(1) 0 . 0.033 0
F5 F1- 4 h 0.2824(6) 0.7824(6) 0.5 . 0.067 0
F6 F1- 2 d 0 0.5 0 . 0.067 0
loop_
_atom_site_aniso_label
_atom_site_aniso_type_symbol
_atom_site_aniso_beta_11
_atom_site_aniso_beta_22
_atom_site_aniso_beta_33
_atom_site_aniso_beta_12
_atom_site_aniso_beta_13
_atom_site_aniso_beta_23
Na1 Na1+ 0.0026(7) 0.0026(4) 0.040(8) 0 0 0
Na2 Na1+ 0.00210(5) 0.00210(5) 0.0156(8) 0 0 0
Ba1 Ba2+ 0.00210(5) 0.00210(5) 0.0156(8) 0 0 0
Nb1 Nb5+ 0.0017(1) 0.0017(1) 0.065(2) 0 0 0
Nb2 Nb5+ 0.00185(5) 0.00156(4) 0.00518(8) 0.000025(5) 0 0
O1 O2- 0.0026(5) 0.0008(3) 0.136(9) 0.0008(3) 0 0
O2 O2- 0.0009(3) 0.0025(5) 0.098(9) -.0004(2) 0 0
O3 O2- 0.037(7) 0.002(1) 0.001(1) 0.008(2) 0 0
O4 O2- 0.008(2) 0.0015(8) 0.008(5) -.002(1) 0 0
O5 O2- 0.0012(3) 0.0012(3) 0.005(1) 0 0 0
O6 O2- 0.013(3) 0.013(3) 0.007(8) 0 0 0
#End of TTdata_4079-ICSD