
#(C) 2019 by FIZ Karlsruhe - Leibniz Institute for Information Infrastructure.  All rights reserved.
data_408110-ICSD
_database_code_ICSD 408110
_audit_creation_date 1999-06-02
_chemical_name_systematic 'Disodium iron aluminium fluoride'
_chemical_formula_structural 'Na2 Fe Al F7'
_chemical_formula_sum 'Al1 F7 Fe1 Na2'
_chemical_name_structure_type Na2CoFeF7
_chemical_name_mineral Weberite
_exptl_crystal_density_diffrn 3.23
_publ_section_title

;
Ueber roentgenographische Einkristalluntersuchungen an Na2 Fe Al F7, Na2 MII
Ga F7 (MII= Ni, Zn) und Na2 Zn Fe F7 und die Strukturchemie der Weberite
;
loop_
_citation_id
_citation_journal_full
_citation_year
_citation_journal_volume
_citation_page_first
_citation_page_last
_citation_journal_id_ASTM
primary 'Zeitschrift fuer Anorganische und Allgemeine Chemie (1950) (DE)' 1998
624 1003 1010 ZAACAB
loop_
_publ_author_name
'Dahlke, P.'
'Peschel, B.'
'Babel, D.'
_cell_length_a 12.426(2)
_cell_length_b 7.278(1)
_cell_length_c 24.2060(30)
_cell_angle_alpha 90.
_cell_angle_beta 99.985(9)
_cell_angle_gamma 90.
_cell_volume 2155.95
_cell_formula_units_Z 16
_symmetry_space_group_name_H-M 'C 1 2/c 1'
_symmetry_Int_Tables_number 15
_refine_ls_R_factor_all 0.0402
loop_
_symmetry_equiv_pos_site_id
_symmetry_equiv_pos_as_xyz
1 'x, -y, z+1/2'
2 '-x, -y, -z'
3 '-x, y, -z+1/2'
4 'x, y, z'
5 'x+1/2, -y+1/2, z+1/2'
6 '-x+1/2, -y+1/2, -z'
7 '-x+1/2, y+1/2, -z+1/2'
8 'x+1/2, y+1/2, z'
loop_
_atom_type_symbol
_atom_type_oxidation_number
Na1+ 1
Fe2+ 2
Al3+ 3
F1- -1
loop_
_atom_site_label
_atom_site_type_symbol
_atom_site_symmetry_multiplicity
_atom_site_Wyckoff_symbol
_atom_site_fract_x
_atom_site_fract_y
_atom_site_fract_z
_atom_site_B_iso_or_equiv
_atom_site_occupancy
_atom_site_attached_hydrogens
Na1 Na1+ 4 a 0 0 0 . 1. 0
Na2 Na1+ 4 b 0 0.5 0 . 1. 0
Na3 Na1+ 4 d 0.25 0.25 0.5 . 1. 0
Na4 Na1+ 4 e 0 0.7895(4) 0.25 . 1. 0
Na5 Na1+ 8 f 0.25306(12) 0.0464(3) 0.25298(6) . 1. 0
Na6 Na1+ 8 f 0.37296(13) 0.5100(2) 0.12094(6) . 1. 0
Fe1 Fe2+ 8 f 0.37761(3) 0.01050(6) 0.12779(2) . 1. 0
Fe2 Fe2+ 8 f 0.12675(3) 0.26324(6) 0.12601(2) . 1. 0
Al1 Al3+ 4 c 0.25 0.25 0 . 1. 0
Al2 Al3+ 4 e 0 0.2505(2) 0.25 . 1. 0
Al3 Al3+ 8 f 0.12624(7) 0.76482(12) 0.12589(3) . 1. 0
F1 F1- 8 f 0.3318(2) 0.0944(3) 0.04742(8) . 1. 0
F2 F1- 8 f 0.4240(2) -.0645(3) 0.20927(8) . 1. 0
F3 F1- 8 f 0.4918(2) 0.2128(3) 0.14070(9) . 1. 0
F4 F1- 8 f 0.2614(2) -.1864(3) 0.11215(9) . 1. 0
F5 F1- 8 f 0.1497(2) 0.2780(3) 0.04495(8) . 1. 0
F6 F1- 8 f 0.1053(2) 0.2559(3) 0.20738(8) . 1. 0
F7 F1- 8 f 0.0779(2) -.0028(2) 0.11059(8) . 1. 0
F8 F1- 8 f 0.1742(2) 0.5313(2) 0.14130(8) . 1. 0
F9 F1- 8 f 0.2839(2) 0.2014(3) 0.15956(8) . 1. 0
F10 F1- 8 f -.0309(2) 0.3232(3) 0.09341(8) . 1. 0
F11 F1- 8 f 0.3281(2) 0.4479(3) 0.03140(8) . 1. 0
F12 F1- 8 f 0.0773(2) 0.0753(3) 0.29131(8) . 1. 0
F13 F1- 8 f 0.1664(2) 0.8139(3) 0.20051(8) . 1. 0
F14 F1- 8 f 0.0867(2) 0.7174(3) 0.05178(8) . 1. 0
loop_
_atom_site_aniso_label
_atom_site_aniso_type_symbol
_atom_site_aniso_U_11
_atom_site_aniso_U_22
_atom_site_aniso_U_33
_atom_site_aniso_U_12
_atom_site_aniso_U_13
_atom_site_aniso_U_23
Na1 Na1+ 0.0323(14) 0.057(2) 0.049(2) 0.0029(11) 0.0163(12) 0.0164(12)
Na2 Na1+ 0.047(2) 0.0271(12) 0.0359(13) -.0001(10) -.0095(12) -.0123(9)
Na3 Na1+ 0.071(2) 0.057(2) 0.076(2) -.025(2) 0.035(2) -.027(2)
Na4 Na1+ 0.048(2) 0.0328(13) 0.059(2) 0 0.0235(14) 0
Na5 Na1+ 0.0302(9) 0.0245(8) 0.0305(9) -.0045(6) 0.0007(7) -.0087(6)
Na6 Na1+ 0.0371(11) 0.0556(13) 0.0196(8) 0.0008(8) 0.0020(8) -.0144(7)
Fe1 Fe2+ 0.0103(3) 0.0120(3) 0.0121(3) 0.0000(2) 0.0016(2) 0.00038(15)
Fe2 Fe2+ 0.0104(3) 0.0108(3) 0.0115(3) 0.00039(15) 0.0024(2) -.00026(14)
Al1 Al3+ 0.0086(6) 0.0119(6) 0.0039(6) 0.0000(4) 0.0012(5) 0.0015(4)
Al2 Al3+ 0.0081(6) 0.0109(6) 0.0043(6) 0 0.0011(5) 0
Al3 Al3+ 0.0057(5) 0.0046(4) 0.0107(5) -.0015(3) 0.0003(4) 0.0003(3)
F1 F1- 0.0228(10) 0.0346(12) 0.0223(10) 0.0064(9) -.0006(8) 0.0123(9)
F2 F1- 0.0259(11) 0.0288(11) 0.0224(10) 0.0069(9) 0.0001(8) 0.0075(9)
F3 F1- 0.0150(9) 0.024(1) 0.0356(11) -.0062(8) 0.0070(8) -.0002(9)
F4 F1- 0.0149(9) 0.0261(11) 0.0343(11) -.0074(8) 0.0069(8) -.0007(9)
F5 F1- 0.0259(11) 0.0348(12) 0.0202(10) 0.0038(9) 0.0133(9) 0.0039(8)
F6 F1- 0.0212(11) 0.0351(11) 0.0183(10) 0.0016(8) 0.0107(8) 0.0024(8)
F7 F1- 0.0244(10) 0.0122(9) 0.0281(10) 0.0018(7) 0.0005(8) 0.0022(7)
F8 F1- 0.0244(10) 0.0114(8) 0.0295(10) 0.0007(8) -.0001(8) 0.0007(8)
F9 F1- 0.0160(9) 0.0236(10) 0.0267(10) 0.0040(8) 0.0021(8) -.0031(8)
F10 F1- 0.0171(9) 0.0241(10) 0.0267(10) 0.0044(8) 0.0036(8) -.0014(8)
F11 F1- 0.0272(11) 0.0279(11) 0.0207(10) -.0078(9) 0.0008(8) -.0039(8)
F12 F1- 0.0237(10) 0.0235(10) 0.0198(9) 0.0047(8) 0.0003(8) 0.0062(8)
F13 F1- 0.0245(10) 0.0187(9) 0.0179(9) 0.0005(8) -.0023(8) -.0031(7)
F14 F1- 0.0264(11) 0.0242(10) 0.020(1) -.0035(9) -.0026(9) -.0034(8)
#End of TTdata_408110-ICSD