
#(C) 2019 by FIZ Karlsruhe - Leibniz Institute for Information Infrastructure.  All rights reserved.
data_40917-ICSD
_database_code_ICSD 40917
_audit_creation_date 2000-07-15
_audit_update_record 2006-04-01
_chemical_name_systematic 'Disodium hexafluorosilicate'
_chemical_formula_structural 'Na2 (Si F6)'
_chemical_formula_sum 'F6 Na2 Si1'
_chemical_name_structure_type Na2TiF6
_chemical_name_mineral Malladrite
_exptl_crystal_density_diffrn 2.74
_publ_section_title

;
The crystal structures of Na2 Ti F6 and Na2 Si F6. Pseudotrigonal polar phases
in double hexafluorides of the type Me(I)2 Me(IV) F6
;
loop_
_citation_id
_citation_journal_full
_citation_year
_citation_journal_volume
_citation_page_first
_citation_page_last
_citation_journal_id_ASTM
primary 'Zeitschrift fuer Kristallographie' 1986 175 269 276 ZEKRDZ
loop_
_publ_author_name
'Schaefer, G.F.'
_cell_length_a 8.859(2)
_cell_length_b 8.859(2)
_cell_length_c 5.038(2)
_cell_angle_alpha 90.
_cell_angle_beta 90.
_cell_angle_gamma 120.
_cell_volume 342.42
_cell_formula_units_Z 3
_symmetry_space_group_name_H-M 'P 1'
_symmetry_Int_Tables_number 1
_refine_ls_R_factor_all 0.028
loop_
_symmetry_equiv_pos_site_id
_symmetry_equiv_pos_as_xyz
1 'x, y, z'
loop_
_atom_type_symbol
_atom_type_oxidation_number
Si4+ 4
Na1+ 1
F1- -1
loop_
_atom_site_label
_atom_site_type_symbol
_atom_site_symmetry_multiplicity
_atom_site_Wyckoff_symbol
_atom_site_fract_x
_atom_site_fract_y
_atom_site_fract_z
_atom_site_B_iso_or_equiv
_atom_site_occupancy
_atom_site_attached_hydrogens
Si1 Si4+ 1 a 0 0 0 . 1. 0
Si2 Si4+ 1 a 0.3341(9) 0.6668(15) 0.4944(14) . 1. 0
Si3 Si4+ 1 a 0.6659(9) 0.3327(15) -.4944(14) . 1. 0
Na1 Na1+ 1 a 0.6190(22) -.0030(22) 0.0015(18) . 1. 0
Na2 Na1+ 1 a 0.3810(22) 0.3780(22) -.0015(18) . 1. 0
Na3 Na1+ 1 a 0 0.6191(22) 0 . 1. 0
Na4 Na1+ 1 a 0.2826(18) -.0008(20) 0.4972(20) . 1. 0
Na5 Na1+ 1 a -.2826(18) -.2834(20) 0.5028(20) . 1. 0
Na6 Na1+ 1 a 0 0.2865(19) 0.5 . 1. 0
F1 F1- 1 a 0.0977(39) 0.1794(31) 0.1884(43) . 1. 0
F2 F1- 1 a -.0977(39) 0.0817(31) -.1884(43) . 1. 0
F3 F1- 1 a -.1817(25) -.0870(31) 0.1928(26) . 1. 0
F4 F1- 1 a 0.1817(25) 0.0947(31) -.1928(26) . 1. 0
F5 F1- 1 a 0.0868(33) -.0923(28) 0.1902(33) . 1. 0
F6 F1- 1 a -.0868(33) -.1791(28) -.1902(33) . 1. 0
F7 F1- 1 a 0.1540(19) 0.5541(22) 0.3013(22) . 1. 0
F8 F1- 1 a -.1540(19) 0.4001(22) -.3013(22) . 1. 0
F9 F1- 1 a 0.4428(27) 0.5957(28) 0.3057(36) . 1. 0
F10 F1- 1 a 0.5572(27) 0.1529(28) -.3057(36) . 1. 0
F11 F1- 1 a 0.4037(29) 0.8438(23) 0.2956(30) . 1. 0
F12 F1- 1 a 0.5963(29) 0.4401(23) -.2956(30) . 1. 0
F13 F1- 1 a 0.2627(25) 0.4896(23) 0.6889(32) . 1. 0
F14 F1- 1 a -.2627(25) 0.2269(23) 0.3111(32) . 1. 0
F15 F1- 1 a 0.2266(28) 0.7368(27) 0.6900(33) . 1. 0
F16 F1- 1 a -.2266(28) 0.5102(27) 0.3100(33) . 1. 0
F17 F1- 1 a 0.5130(23) 0.7714(25) 0.6868(24) . 1. 0
F18 F1- 1 a 0.4870(23) 0.2584(15) 0.3132(24) . 1. 0
loop_
_atom_site_aniso_label
_atom_site_aniso_type_symbol
_atom_site_aniso_beta_11
_atom_site_aniso_beta_22
_atom_site_aniso_beta_33
_atom_site_aniso_beta_12
_atom_site_aniso_beta_13
_atom_site_aniso_beta_23
Si1 Si4+ 0.0085(33) 0.0044(16) 0.0161(30) 0.0043 -.0024(32) -.0012
Si2 Si4+ 0.0033(16) 0.0039(11) 0.0152(23) 0.0012(13) -.0010(17) -.0001(16)
Si3 Si4+ 0.0033(16) 0.0048(11) 0.0152(23) 0.0021(13) -.0010(17) -.0009(16)
Na1 Na1+ 0.0092(30) 0.0109(16) 0.0101(29) 0.0077(20) 0.0027(32) -.0025(28)
Na2 Na1+ 0.0092(30) 0.0047(16) 0.0101(29) 0.0015(20) 0.0027(32) 0.0052(28)
Na3 Na1+ 0.0153(44) 0.0106(17) 0.0159(30) 0.0077 -.0027(51) -.0014
Na4 Na1+ 0.0060(25) 0.0072(13) 0.0191(34) 0.0026(17) -.0008(31) 0.0008(30)
Na5 Na1+ 0.0060(25) 0.0080(13) 0.0191(34) 0.0034(17) -.0008(31) 0.0016(30)
Na6 Na1+ 0.0033(33) 0.0077(16) 0.0175(50) 0.0017 0.0032(52) 0.0016
F1 F1- 0.0184(64) 0.0084(40) 0.0487(99) 0.0071(44) 0.0008(99) -.0134(66)
F2 F1- 0.0184(64) 0.0126(40) 0.0487(99) 0.0113(44) 0.0008(99) 0.0142(66)
F3 F1- 0.0046(42) 0.0143(35) 0.0283(65) 0.0041(43) 0.0018(62) 0.0054(53)
F4 F1- 0.0046(42) 0.0107(35) 0.0283(65) 0.0005(43) 0.0018(62) -.0036(53)
F5 F1- 0.0167(51) 0.0149(30) 0.0182(66) 0.0112(35) -.0118(63) -.0059(41)
F6 F1- 0.0167(51) 0.0092(30) 0.0182(66) 0.0055(35) -.0118(63) -.0059(41)
F7 F1- 0.0053(34) 0.0041(24) 0.0135(49) 0.0017(24) 0.0003(44) 0.0038(29)
F8 F1- 0.0053(34) 0.0060(24) 0.0135(49) 0.0036(24) 0.0003(44) -.0035(29)
F9 F1- 0.0098(40) 0.0108(33) 0.0285(92) 0.0076(33) -.0034(58) -.0102(43)
F10 F1- 0.0098(40) 0.0054(33) 0.0285(92) 0.0022(33) -.0034(58) 0.0068(43)
F11 F1- 0.0124(48) 0.0036(23) 0.0151(62) 0.0043(28) -.0019(54) -.0005(36)
F12 F1- 0.0124(48) 0.0074(23) 0.0151(62) 0.0081(28) -.0019(54) -.0014(36)
F13 F1- 0.0083(43) 0.0042(30) 0.0244(77) 0.0034(30) 0.0048(55) 0.0066(38)
F14 F1- 0.0083(43) 0.0057(30) 0.0244(77) 0.0049(30) 0.0048(55) -.0018(38)
F15 F1- 0.0109(46) 0.0124(35) 0.0163(63) 0.0096(38) 0.0004(56) -.0024(40)
F16 F1- 0.0109(46) 0.0041(35) 0.0163(63) 0.0013(38) 0.0004(56) 0.0028(40)
F17 F1- 0.0116(42) 0.0133(31) 0.0179(56) 0.0087(32) -.0128(50) -.0141(43)
F18 F1- 0.0116(42) 0.0075(31) 0.0179(56) 0.0029(32) -.0128(50) 0.0013(43)
#End of TTdata_40917-ICSD