
#(C) 2019 by FIZ Karlsruhe - Leibniz Institute for Information Infrastructure.  All rights reserved.
data_409210-ICSD
_database_code_ICSD 409210
_audit_creation_date 1999-06-02
_audit_update_record 2006-04-01
_chemical_name_systematic 'Sodium vanadium(IV) vanadium oxide - alpha''
_chemical_formula_structural 'Na (V2 O5)'
_chemical_formula_sum 'Na1 O5 V2'
_chemical_name_structure_type CaV2O5
_exptl_crystal_density_diffrn 3.47
_cell_measurement_temperature 295.
_publ_section_title
'Redetermination of the crystal structure of sodium vanadate, alpha'-Na V2 O5'
loop_
_citation_id
_citation_journal_full
_citation_year
_citation_journal_volume
_citation_page_first
_citation_page_last
_citation_journal_id_ASTM
primary 'Zeitschrift fuer Kristallographie - New Crystal Structures' 1998 213
246 246 ZKNSFT
loop_
_publ_author_name
'von Schnering, H.G.'
'Grin', Yu. (Hrin', Yu.'
' Grin, Yu.'
' Hrin, Yu.)'
'Kaupp, M.'
'Somer, M.'
'Kremer, R.K.'
'Jepsen, O.'
'Chatterji, T.'
'Weiden, M.'
_cell_length_a 11.311(2)
_cell_length_b 3.6105(6)
_cell_length_c 4.800(1)
_cell_angle_alpha 90.
_cell_angle_beta 90.
_cell_angle_gamma 90.
_cell_volume 196.02
_cell_formula_units_Z 2
_symmetry_space_group_name_H-M 'P m m n Z'
_symmetry_Int_Tables_number 59
_refine_ls_R_factor_all 0.024
loop_
_symmetry_equiv_pos_site_id
_symmetry_equiv_pos_as_xyz
1 'x+1/2, y+1/2, -z'
2 '-x, y+1/2, -z'
3 'x+1/2, -y, -z'
4 '-x, -y, -z'
5 '-x+1/2, -y+1/2, z'
6 'x, -y+1/2, z'
7 '-x+1/2, y, z'
8 'x, y, z'
loop_
_atom_type_symbol
_atom_type_oxidation_number
V4+ 4.5
O2- -2
Na1+ 1
loop_
_atom_site_label
_atom_site_type_symbol
_atom_site_symmetry_multiplicity
_atom_site_Wyckoff_symbol
_atom_site_fract_x
_atom_site_fract_y
_atom_site_fract_z
_atom_site_B_iso_or_equiv
_atom_site_occupancy
_atom_site_attached_hydrogens
V1 V4+ 4 f 0.09789(4) 0.25 0.10773(1) . 1. 0
O1 O2- 4 f 0.1143(2) 0.25 0.4422(5) . 1. 0
O2 O2- 4 f -.0729(2) 0.25 0.0121(5) . 1. 0
O3 O2- 2 a 0.25 0.25 -.0189(7) . 1. 0
Na1 Na1+ 2 b 0.75 0.25 0.3593(5) . 1. 0
loop_
_atom_site_aniso_label
_atom_site_aniso_type_symbol
_atom_site_aniso_U_11
_atom_site_aniso_U_22
_atom_site_aniso_U_33
_atom_site_aniso_U_12
_atom_site_aniso_U_13
_atom_site_aniso_U_23
V1 V4+ 0.0072(2) 0.0059(2) 0.0118(2) 0 -.0023(2) 0
O1 O2- 0.0158(10) 0.0185(11) 0.0135(10) 0 -.0009(8) 0
O2 O2- 0.0080(8) 0.0057(8) 0.0185(10) 0 -.0019(8) 0
O3 O2- 0.0089(11) 0.0074(12) 0.0135(13) 0 0 0
Na1 Na1+ 0.025(1) 0.0144(9) 0.0159(9) 0 0 0
#End of TTdata_409210-ICSD