
#(C) 2019 by FIZ Karlsruhe - Leibniz Institute for Information Infrastructure.  All rights reserved.
data_40962-ICSD
_database_code_ICSD 40962
_audit_creation_date 2000-07-15
_audit_update_record 2019-02-01
_chemical_name_systematic 'Sodium tetramolybdenum hexaoxide'
_chemical_formula_structural 'Na Mo4 O6'
_chemical_formula_sum 'Mo4 Na1 O6'
_chemical_name_structure_type NaMo4O6
_exptl_crystal_density_diffrn 6.39
_publ_section_title

;
Sodium tetramolybdenum hexoxide (Na Mo4 O6). A metallic infinite-chain polymer
derived by condensation of octahedral clusters
;
loop_
_citation_id
_citation_journal_full
_citation_year
_citation_journal_volume
_citation_page_first
_citation_page_last
_citation_journal_id_ASTM
primary 'Journal of the American Chemical Society' 1979 101 3963 3964 JACSAT
loop_
_publ_author_name
'Torardi, C.C.'
'McCarley, R.E.'
_cell_length_a 9.559(3)
_cell_length_b 9.559(3)
_cell_length_c 2.860(1)
_cell_angle_alpha 90.
_cell_angle_beta 90.
_cell_angle_gamma 90.
_cell_volume 261.33
_cell_formula_units_Z 2
_symmetry_space_group_name_H-M 'P 4/m b m'
_symmetry_Int_Tables_number 127
_refine_ls_R_factor_all 0.046
loop_
_symmetry_equiv_pos_site_id
_symmetry_equiv_pos_as_xyz
1 'y+1/2, x+1/2, -z'
2 '-y+1/2, -x+1/2, -z'
3 '-y, x, -z'
4 'y, -x, -z'
5 'x+1/2, -y+1/2, -z'
6 '-x+1/2, y+1/2, -z'
7 'x, y, -z'
8 '-x, -y, -z'
9 '-y+1/2, -x+1/2, z'
10 'y+1/2, x+1/2, z'
11 'y, -x, z'
12 '-y, x, z'
13 '-x+1/2, y+1/2, z'
14 'x+1/2, -y+1/2, z'
15 '-x, -y, z'
16 'x, y, z'
loop_
_atom_type_symbol
_atom_type_oxidation_number
Mo2+ 2.75
Na1+ 1
O2- -2
loop_
_atom_site_label
_atom_site_type_symbol
_atom_site_symmetry_multiplicity
_atom_site_Wyckoff_symbol
_atom_site_fract_x
_atom_site_fract_y
_atom_site_fract_z
_atom_site_B_iso_or_equiv
_atom_site_occupancy
_atom_site_attached_hydrogens
Mo1 Mo2+ 4 h 0.1021(1) 0.3979(1) 0.5 0.7 1. 0
Mo2 Mo2+ 4 g 0.3556(1) 0.1444(1) 0 0.7 1. 0
Na1 Na1+ 2 a 0 0 0 7.2 1. 0
O1 O2- 4 g 0.2064(9) 0.2936(9) 0 0.8 1. 0
O2 O2- 8 j 0.2407(8) 0.0451(9) 0.5 0.7 1. 0
#End of TTdata_40962-ICSD