
#(C) 2019 by FIZ Karlsruhe - Leibniz Institute for Information Infrastructure.  All rights reserved.
data_409786-ICSD
_database_code_ICSD 409786
_audit_creation_date 2005-10-01
_audit_update_record 2010-08-01
_chemical_name_systematic 'Sodium tetratin tris(phosphate(V))'
_chemical_formula_structural 'Na Sn4 (P O4)3'
_chemical_formula_sum 'Na1 O12 P3 Sn4'
_chemical_name_structure_type NaSn4(PO4)3
_exptl_crystal_density_diffrn 4.05
_publ_section_title
'Crystal structure of sodium tetratin(II) triphosphate, Na Sn4 (P O4)3'
loop_
_citation_id
_citation_journal_full
_citation_year
_citation_journal_volume
_citation_page_first
_citation_page_last
_citation_journal_id_ASTM
primary 'Zeitschrift fuer Kristallographie - New Crystal Structures' 2004 219
205 206 ZKNSFT
loop_
_publ_author_name
'Mao, S.-Y.'
'Deng, J.-F.'
'Li, M.-R.'
'Mi Jinxiao'
'Chen, H.-H.'
'Zhao, J.-T.'
_cell_length_a 9.5935(14)
_cell_length_b 9.5935(14)
_cell_length_c 24.186(5)
_cell_angle_alpha 90.
_cell_angle_beta 90.
_cell_angle_gamma 120.
_cell_volume 1927.74
_cell_formula_units_Z 6
_symmetry_space_group_name_H-M 'R 3 c H'
_symmetry_Int_Tables_number 161
_refine_ls_R_factor_all 0.0231
loop_
_symmetry_equiv_pos_site_id
_symmetry_equiv_pos_as_xyz
1 '-x+y, y, z+1/2'
2 'x, x-y, z+1/2'
3 '-y, -x, z+1/2'
4 '-x+y, -x, z'
5 '-y, x-y, z'
6 'x, y, z'
7 '-x+y+2/3, y+1/3, z+5/6'
8 'x+2/3, x-y+1/3, z+5/6'
9 '-y+2/3, -x+1/3, z+5/6'
10 '-x+y+2/3, -x+1/3, z+1/3'
11 '-y+2/3, x-y+1/3, z+1/3'
12 'x+2/3, y+1/3, z+1/3'
13 '-x+y+1/3, y+2/3, z+1/6'
14 'x+1/3, x-y+2/3, z+1/6'
15 '-y+1/3, -x+2/3, z+1/6'
16 '-x+y+1/3, -x+2/3, z+2/3'
17 '-y+1/3, x-y+2/3, z+2/3'
18 'x+1/3, y+2/3, z+2/3'
loop_
_atom_type_symbol
_atom_type_oxidation_number
Na1+ 1
Sn2+ 2
P5+ 5
O2- -2
loop_
_atom_site_label
_atom_site_type_symbol
_atom_site_symmetry_multiplicity
_atom_site_Wyckoff_symbol
_atom_site_fract_x
_atom_site_fract_y
_atom_site_fract_z
_atom_site_B_iso_or_equiv
_atom_site_occupancy
_atom_site_attached_hydrogens
Na1 Na1+ 6 a 0. 0. 0.0426(2) 0.0254(10) 1 0
Sn1 Sn2+ 6 a 0.6667 0.3333 0.02428(3) 0.0212(2) 1 0
Sn2 Sn2+ 18 b 0.59256(4) 0.73008(4) 0.990301(16) 0.01722(15) 1 0
P1 P5+ 18 b 0.67261(16) 0.78848(16) 0.11802(7) 0.0137(3) 1 0
O1 O2- 18 b 0.8119(6) 0.7300(6) 0.9942(2) 0.0220(10) 1 0
O2 O2- 18 b 0.8391(5) 0.8218(6) 0.1371(3) 0.0265(11) 1 0
O3 O2- 18 b 0.7126(6) 0.9409(5) 0.9427(2) 0.0228(10) 1 0
O4 O2- 18 b 0.6895(6) 0.8726(5) 0.0621(2) 0.0216(9) 1 0
loop_
_atom_site_aniso_label
_atom_site_aniso_type_symbol
_atom_site_aniso_U_11
_atom_site_aniso_U_22
_atom_site_aniso_U_33
_atom_site_aniso_U_12
_atom_site_aniso_U_13
_atom_site_aniso_U_23
Na1 Na1+ 0.0252(14) 0.0252(14) 0.026(3) 0.0126(7) 0. 0.
Sn1 Sn2+ 0.0239(3) 0.0239(3) 0.0160(4) 0.01193(13) 0. 0.
Sn2 Sn2+ 0.0155(2) 0.0131(2) 0.0218(2) 0.00619(17) -0.00084(16) 0.00069(15)
P1 P5+ 0.0126(6) 0.0115(6) 0.0163(7) 0.0055(5) 0.0034(5) 0.0007(5)
O1 O2- 0.028(2) 0.032(2) 0.015(2) 0.021(2) -0.0014(17) -0.0072(18)
O2 O2- 0.015(2) 0.022(2) 0.044(3) 0.0097(19) -0.005(2) -0.007(2)
O3 O2- 0.031(2) 0.014(2) 0.024(3) 0.0125(19) 0.002(2) 0.0030(18)
O4 O2- 0.029(2) 0.015(2) 0.019(2) 0.0100(19) 0.0067(18) 0.0012(18)
#End of TTdata_409786-ICSD