
#(C) 2019 by FIZ Karlsruhe - Leibniz Institute for Information Infrastructure.  All rights reserved.
data_409784-ICSD
_database_code_ICSD 409784
_audit_creation_date 2005-10-01
_audit_update_record 2008-02-01
_chemical_name_systematic 'Sodium scandium bis(hydrogenphosphate(V))'
_chemical_formula_structural 'Na Sc (H P O4)2'
_chemical_formula_sum 'H2 Na1 O8 P2 Sc1'
_exptl_crystal_density_diffrn 2.64
_publ_section_title

;
Crystal structure of sodium scandium bis(monohydrogenphosphate), Na Sc (H P
O4)2
;
loop_
_citation_id
_citation_journal_full
_citation_year
_citation_journal_volume
_citation_page_first
_citation_page_last
_citation_journal_id_ASTM
primary 'Zeitschrift fuer Kristallographie - New Crystal Structures' 2004 219
343 344 ZKNSFT
loop_
_publ_author_name
'Ewald, B.'
'Prots', Yu.M. (Prots, Yu.M.)'
'Zhang, H.'
'Kniep, R.'
_cell_length_a 10.4446(9)
_cell_length_b 16.371(2)
_cell_length_c 9.0553(7)
_cell_angle_alpha 90.
_cell_angle_beta 122.420(3)
_cell_angle_gamma 90.
_cell_volume 1307.03
_cell_formula_units_Z 8
_symmetry_space_group_name_H-M 'C 1 c 1'
_symmetry_Int_Tables_number 9
_refine_ls_R_factor_all 0.023
loop_
_symmetry_equiv_pos_site_id
_symmetry_equiv_pos_as_xyz
1 'x, -y, z+1/2'
2 'x, y, z'
3 'x+1/2, -y+1/2, z+1/2'
4 'x+1/2, y+1/2, z'
loop_
_atom_type_symbol
_atom_type_oxidation_number
Sc3+ 3
P5+ 5
Na1+ 1
O2- -2
H1+ 1
O2- -2
H1+ 1
O2- -2
H1+ 1
O2- -2
H1+ 1
O2- -2
loop_
_atom_site_label
_atom_site_type_symbol
_atom_site_symmetry_multiplicity
_atom_site_Wyckoff_symbol
_atom_site_fract_x
_atom_site_fract_y
_atom_site_fract_z
_atom_site_B_iso_or_equiv
_atom_site_occupancy
_atom_site_attached_hydrogens
Sc1 Sc3+ 4 a 0.00000(4) 0.13331(2) 0.00001(4) 0.00820(6) 1 0
Sc2 Sc3+ 4 a 0.47028(4) 0.112563(19) 0.96206(4) 0.00808(6) 1 0
P1 P5+ 4 a 0.37304(6) 0.19231(3) 0.24762(6) 0.00928(8) 1 0
P2 P5+ 4 a 0.80470(5) 0.22482(3) 0.17431(6) 0.00932(9) 1 0
P3 P5+ 4 a 0.67509(6) 0.01552(3) 0.82124(6) 0.00924(8) 1 0
P4 P5+ 4 a 0.15861(6) -0.00204(3) 0.85168(6) 0.00898(8) 1 0
Na1 Na1+ 4 a 0.53735(14) 0.33222(8) 0.13135(14) 0.0346(3) 1 0
Na2 Na1+ 4 a 0.60392(12) 0.19032(6) 0.71677(14) 0.0260(2) 1 0
O1 O2- 4 a 0.63671(18) -0.04113(9) 0.66939(19) 0.0166(3) 1 0
O2 O2- 4 a 0.4082(2) 0.16025(10) 0.1174(2) 0.0217(3) 1 0
O3 O2- 4 a 0.08720(18) 0.07532(9) 0.86740(19) 0.0146(3) 1 0
O4 O2- 4 a 0.05316(18) -0.04301(9) 0.67864(19) 0.0177(3) 1 0
O5 O2- 4 a 0.53684(18) 0.05690(9) 0.80318(18) 0.0142(3) 1 0
O6 O2- 4 a 0.44240(18) 0.27618(8) 0.31115(19) 0.0144(3) 1 0
O7 O2- 4 a 0.78627(17) 0.08076(8) 0.83801(18) 0.0155(3) 1 0
O8 O2- 4 a 0.63901(17) 0.20562(9) 0.03673(19) 0.0154(3) 1 0
O9 O2- 4 a 0.20336(17) 0.19279(9) 0.17315(19) 0.0148(3) 1 0
O10 O2- 4 a 0.7545(2) -0.04348(10) -0.0148(2) 0.0192(3) 1 0
H1 H1+ 4 a 0.8412 -0.0277 0.0545 0.26(5) 1 0
O11 O2- 4 a 0.90712(19) 0.21212(9) 0.1058(2) 0.0176(3) 1 0
O12 O2- 4 a 0.8561(2) 0.16426(10) 0.3340(2) 0.0227(3) 1 0
H2 H1+ 4 a 0.815 0.1198 0.2969 0.15(3) 1 0
O13 O2- 4 a 0.45316(19) 0.13553(9) 0.4170(2) 0.0196(3) 1 0
H3 H1+ 4 a 0.408 0.0918 0.3944 0.039(10) 1 0
O14 O2- 4 a 0.31331(18) 0.01640(9) 0.8775(2) 0.0185(3) 1 0
O15 O2- 4 a 0.1835(2) -0.06429(10) -0.0026(2) 0.0250(3) 1 0
H4 H1+ 4 a 0.272 -0.0621 0.0799 0.11(2) 1 0
O16 O2- 4 a 0.82293(17) 0.31013(8) 0.25009(19) 0.0153(3) 1 0
loop_
_atom_site_aniso_label
_atom_site_aniso_type_symbol
_atom_site_aniso_U_11
_atom_site_aniso_U_22
_atom_site_aniso_U_33
_atom_site_aniso_U_12
_atom_site_aniso_U_13
_atom_site_aniso_U_23
Sc1 Sc3+ 0.00686(15) 0.00806(12) 0.00897(13) 0.00008(10) 0.00376(10)
-0.00021(10)
Sc2 Sc3+ 0.00790(16) 0.00820(12) 0.00858(13) 0.00013(11) 0.00470(11)
-0.00021(10)
P1 P5+ 0.0085(2) 0.00945(18) 0.01070(18) -0.00174(15) 0.00571(16) -0.00290(14)
P2 P5+ 0.0079(2) 0.00926(18) 0.01044(18) -0.00171(15) 0.00469(16) -0.00179(14)
P3 P5+ 0.0097(2) 0.00913(17) 0.00938(18) -0.00107(16) 0.00549(16) -0.00230(14)
P4 P5+ 0.0082(2) 0.00866(17) 0.00957(18) -0.00027(15) 0.00439(15) -0.00143(14)
Na1 Na1+ 0.0326(6) 0.0444(7) 0.0247(5) -0.0055(5) 0.0140(5) -0.0118(5)
Na2 Na1+ 0.0240(5) 0.0166(4) 0.0374(5) 0.0042(4) 0.0165(4) 0.0105(4)
O1 O2- 0.0176(8) 0.0182(6) 0.0133(6) -0.0023(5) 0.0079(5) -0.0084(5)
O2 O2- 0.0220(9) 0.0274(8) 0.0207(7) -0.0021(6) 0.0148(6) -0.0113(6)
O3 O2- 0.0178(8) 0.0120(6) 0.0169(6) 0.0026(5) 0.0113(6) -0.0023(5)
O4 O2- 0.0169(8) 0.0184(7) 0.0147(6) -0.0032(6) 0.0064(5) -0.0072(5)
O5 O2- 0.0139(7) 0.0178(7) 0.0144(6) 0.0022(5) 0.0099(5) -0.0015(5)
O6 O2- 0.0157(8) 0.0124(6) 0.0168(6) -0.0057(5) 0.0096(5) -0.0057(5)
O7 O2- 0.0114(7) 0.0141(6) 0.0156(6) -0.0041(5) 0.0038(5) -0.0005(5)
O8 O2- 0.0115(7) 0.0136(6) 0.0169(6) -0.0046(5) 0.0048(5) -0.0016(5)
O9 O2- 0.0088(7) 0.0177(6) 0.0160(6) -0.0029(5) 0.0054(5) -0.0055(5)
O10 O2- 0.0227(9) 0.0187(7) 0.0175(7) 0.0057(6) 0.0116(6) 0.0063(5)
O11 O2- 0.0176(8) 0.0169(7) 0.0233(7) -0.0004(6) 0.0144(6) -0.0049(5)
O12 O2- 0.0209(8) 0.0205(7) 0.0188(7) -0.0056(6) 0.0054(6) 0.0080(6)
O13 O2- 0.0190(8) 0.0157(7) 0.0185(7) 0.0011(5) 0.0062(6) 0.0049(5)
O14 O2- 0.0126(8) 0.0148(6) 0.0292(8) -0.0038(5) 0.0119(6) -0.0081(6)
O15 O2- 0.0312(10) 0.0232(8) 0.0200(7) 0.0058(7) 0.0133(7) 0.0099(6)
O16 O2- 0.0144(7) 0.0109(6) 0.0161(6) -0.0021(5) 0.0052(5) -0.0067(5)
#End of TTdata_409784-ICSD