
#(C) 2019 by FIZ Karlsruhe - Leibniz Institute for Information Infrastructure.  All rights reserved.
data_409736-ICSD
_database_code_ICSD 409736
_audit_creation_date 2005-04-01
_audit_update_record 2006-04-01
_chemical_name_systematic
'Sodium cesium tetrahydroxopentaoxotetraborate tetrahydrate'
_chemical_formula_structural 'Na Cs (B4 O5 (O H)4) (H2 O)4'
_chemical_formula_sum 'H12 B4 Cs1 Na1 O13'
_chemical_name_structure_type NaRbB4O5(OH)4(H2O)4
_exptl_crystal_density_diffrn 2.28
_publ_section_title

;
Crystal structure of sodium ceasium tetrahydrogen-tetraborate tetrahydrate, Na
Cs (B4 O5(O H)4) . 4(H2 O)
;
loop_
_citation_id
_citation_journal_full
_citation_year
_citation_journal_volume
_citation_page_first
_citation_page_last
_citation_journal_id_ASTM
primary 'Zeitschrift fuer Kristallographie - New Crystal Structures' 2004 219 1
2 ZKNSFT
loop_
_publ_author_name
'Zhou, J.-G.'
'Zhou, F.-Y.'
'Xia, S.-P.'
'Yang, L.'
'Lu, Y.'
'Wang, J.-J.'
'Gao, S.-Y.'
_cell_length_a 8.240(1)
_cell_length_b 11.493(1)
_cell_length_c 12.900(2)
_cell_angle_alpha 90.
_cell_angle_beta 92.11(1)
_cell_angle_gamma 90.
_cell_volume 1220.83
_cell_formula_units_Z 4
_symmetry_space_group_name_H-M 'P 1 21/c 1'
_symmetry_Int_Tables_number 14
_refine_ls_R_factor_all 0.0285
loop_
_symmetry_equiv_pos_site_id
_symmetry_equiv_pos_as_xyz
1 'x, -y+1/2, z+1/2'
2 '-x, -y, -z'
3 '-x, y+1/2, -z+1/2'
4 'x, y, z'
loop_
_atom_type_symbol
_atom_type_oxidation_number
Cs1+ 1
Na1+ 1
O2- -2
B3+ 3
H1+ 1
loop_
_atom_site_label
_atom_site_type_symbol
_atom_site_symmetry_multiplicity
_atom_site_Wyckoff_symbol
_atom_site_fract_x
_atom_site_fract_y
_atom_site_fract_z
_atom_site_B_iso_or_equiv
_atom_site_occupancy
_atom_site_attached_hydrogens
Cs1 Cs1+ 4 e 0.95886(2) 0.60651(2) 0.363844(17) 0.03460(11) 1 0
Na1 Na1+ 4 e 0.84747(15) 0.91133(11) 0.53636(10) 0.0296(3) 1 0
O1 O2- 4 e 0.7245(2) 0.33985(18) 0.33892(16) 0.0218(4) 1 0
O2 O2- 4 e 0.5588(2) 0.18203(16) 0.27040(16) 0.0203(4) 1 0
O3 O2- 4 e 0.3057(2) 0.27639(16) 0.29949(15) 0.0179(4) 1 0
O4 O2- 4 e 0.4727(2) 0.41876(17) 0.39180(15) 0.0202(4) 1 0
O5 O2- 4 e 0.5126(2) 0.37866(16) 0.21055(14) 0.0158(4) 1 0
O6 O2- 4 e 0.7151(3) 0.4376(2) 0.49643(19) 0.0385(6) 1 0
O7 O2- 4 e 0.7580(3) 0.2785(2) 0.16585(18) 0.0272(5) 1 0
O8 O2- 4 e 0.3215(3) 0.07564(17) 0.31212(17) 0.0229(5) 1 0
O9 O2- 4 e 0.2663(2) 0.47588(17) 0.26398(16) 0.0187(4) 1 0
O10 O2- 4 e 0.6691(3) 0.7701(3) 0.4541(2) 0.0440(6) 1 0
O11 O2- 4 e 0.9764(3) 0.7364(3) 0.5916(2) 0.0540(8) 1 0
O12 O2- 4 e 0.9866(3) 0.9382(2) 0.37805(18) 0.0304(5) 1 0
O13 O2- 4 e 0.6640(4) 1.0688(3) 0.4822(2) 0.0544(8) 1 0
B1 B3+ 4 e 0.6345(4) 0.3986(3) 0.4078(3) 0.0204(6) 1 0
B2 B3+ 4 e 0.6382(4) 0.2957(3) 0.2440(2) 0.0166(6) 1 0
B3 B3+ 4 e 0.3991(4) 0.1789(3) 0.2933(2) 0.0169(6) 1 0
B4 B3+ 4 e 0.3874(4) 0.3889(3) 0.2883(2) 0.0153(6) 1 0
H1 H1+ 4 e 0.662(3) 0.478(2) 0.535(2) 0.025(9) 1 0
H2 H1+ 4 e 0.707(6) 0.253(5) 0.116(3) 0.11(2) 1 0
H3 H1+ 4 e 0.383(3) 0.0200(19) 0.313(2) 0.020(9) 1 0
H4 H1+ 4 e 0.309(4) 0.5394(16) 0.260(3) 0.036(11) 1 0
H5 H1+ 4 e 0.596(5) 0.805(5) 0.422(4) 0.11(2) 1 0
H6 H1+ 4 e 0.619(6) 0.720(4) 0.485(4) 0.09(2) 1 0
H7 H1+ 4 e 0.903(4) 0.716(4) 0.629(3) 0.068(16) 1 0
H8 H1+ 4 e 1.062(3) 0.718(5) 0.621(4) 0.080(18) 1 0
H9 H1+ 4 e 0.914(3) 0.950(4) 0.334(2) 0.047(12) 1 0
H10 H1+ 4 e 1.053(4) 0.893(3) 0.355(3) 0.046(13) 1 0
H11 H1+ 4 e 0.658(7) 1.103(4) 0.427(2) 0.074(18) 1 0
H12 H1+ 4 e 0.581(3) 1.030(5) 0.483(3) 0.072(17) 1 0
loop_
_atom_site_aniso_label
_atom_site_aniso_type_symbol
_atom_site_aniso_U_11
_atom_site_aniso_U_22
_atom_site_aniso_U_33
_atom_site_aniso_U_12
_atom_site_aniso_U_13
_atom_site_aniso_U_23
Cs1 Cs1+ 0.02616(13) 0.04077(15) 0.03694(15) -0.00130(9) 0.00202(8) 0.00068(10)
Na1 Na1+ 0.0261(6) 0.0360(7) 0.0269(6) 0.0004(5) 0.0024(5) 0.0012(5)
O1 O2- 0.0148(9) 0.0237(11) 0.0265(11) 0.0037(8) -0.0044(8) -0.0072(9)
O2 O2- 0.0158(9) 0.0129(9) 0.0324(11) 0.0022(8) 0.0040(8) -0.0004(9)
O3 O2- 0.0149(9) 0.0134(9) 0.0256(11) 0.0002(7) 0.0035(8) 0.0004(8)
O4 O2- 0.0155(9) 0.0251(11) 0.0197(10) 0.0038(8) -0.0029(8) -0.0048(8)
O5 O2- 0.0138(9) 0.0150(9) 0.0186(9) 0.0005(7) 0.0016(7) 0.0004(8)
O6 O2- 0.0235(12) 0.0536(15) 0.0374(14) 0.0149(11) -0.0125(10) -0.0269(12)
O7 O2- 0.0210(11) 0.0289(12) 0.0324(13) 0.0008(9) 0.0111(10) -0.0020(10)
O8 O2- 0.0221(11) 0.0127(10) 0.0343(12) -0.0001(8) 0.0060(9) 0.0009(9)
O9 O2- 0.0144(9) 0.0145(10) 0.0271(11) 0.0029(8) -0.0013(8) 0.0011(8)
O10 O2- 0.0404(15) 0.0527(18) 0.0380(15) -0.0064(14) -0.0100(12) 0.0105(13)
O11 O2- 0.0237(14) 0.084(2) 0.0550(18) 0.0167(14) 0.0095(13) 0.0328(16)
O12 O2- 0.0226(12) 0.0408(13) 0.0276(13) 0.0052(11) -0.0020(10) -0.0043(11)
O13 O2- 0.0563(18) 0.074(2) 0.0329(15) 0.0209(16) -0.0031(13) 0.0085(15)
B1 B3+ 0.0164(14) 0.0210(16) 0.0235(16) 0.0022(13) -0.0027(12) -0.0008(14)
B2 B3+ 0.0155(14) 0.0147(15) 0.0197(15) 0.0003(12) 0.0033(12) 0.0000(12)
B3 B3+ 0.0203(15) 0.0162(15) 0.0141(14) -0.0032(12) 0.0002(12) -0.0019(12)
B4 B3+ 0.0131(14) 0.0149(14) 0.0179(15) 0.0001(12) -0.0003(11) -0.0005(13)
#End of TTdata_409736-ICSD