
#(C) 2019 by FIZ Karlsruhe - Leibniz Institute for Information Infrastructure.  All rights reserved.
data_409801-ICSD
_database_code_ICSD 409801
_audit_creation_date 2005-10-01
_chemical_name_systematic 'Sodium ytterbium diphosphate'
_chemical_formula_structural 'Na Yb P2 O7'
_chemical_formula_sum 'Na1 O7 P2 Yb1'
_chemical_name_structure_type NaLuP2O7
_exptl_crystal_density_diffrn 4.09
_publ_section_title
'Crystal structure of sodium ytterbium diphosphate, Na Yb P2 O7'
loop_
_citation_id
_citation_journal_full
_citation_year
_citation_journal_volume
_citation_page_first
_citation_page_last
_citation_journal_id_ASTM
primary 'Zeitschrift fuer Kristallographie - New Crystal Structures' 2004 219
353 354 ZKNSFT
loop_
_publ_author_name
'Ferid, M.'
'Horchani-Naifer, K.'
'Trabelsi-Ayedi, M.'
_cell_length_a 9.0211(3)
_cell_length_b 5.3571(4)
_cell_length_c 12.7802(6)
_cell_angle_alpha 90.
_cell_angle_beta 103.176(5)
_cell_angle_gamma 90.
_cell_volume 601.37
_cell_formula_units_Z 4
_symmetry_space_group_name_H-M 'P 1 21/n 1'
_symmetry_Int_Tables_number 14
_refine_ls_R_factor_all 0.0457
loop_
_symmetry_equiv_pos_site_id
_symmetry_equiv_pos_as_xyz
1 '-x+1/2, y+1/2, -z+1/2'
2 '-x, -y, -z'
3 'x+1/2, -y+1/2, z+1/2'
4 'x, y, z'
loop_
_atom_type_symbol
_atom_type_oxidation_number
Yb3+ 3
P5+ 5
Na1+ 1
O2- -2
loop_
_atom_site_label
_atom_site_type_symbol
_atom_site_symmetry_multiplicity
_atom_site_Wyckoff_symbol
_atom_site_fract_x
_atom_site_fract_y
_atom_site_fract_z
_atom_site_B_iso_or_equiv
_atom_site_occupancy
_atom_site_attached_hydrogens
Yb1 Yb3+ 4 e 0.76943(2) 0.76384(4) 0.023587(18) 0.00821(15) 1 0
P1 P5+ 4 e 0.9716(2) 1.2512(2) 0.15355(15) 0.0079(3) 1 0
P2 P5+ 4 e 0.5682(2) 0.2824(3) -0.11804(14) 0.0084(3) 1 0
Na1 Na1+ 4 e 0.6384(4) 1.2280(5) 0.1931(3) 0.0194(6) 1 0
O1 O2- 4 e 1.0596(8) 1.2587(8) 0.0690(5) 0.0185(12) 1 0
O2 O2- 4 e 0.8908(5) 1.0059(8) 0.1594(3) 0.0117(8) 1 0
O3 O2- 4 e 0.8605(5) 1.4693(8) 0.1458(3) 0.0121(8) 1 0
O4 O2- 4 e 1.0948(5) 1.2793(8) 0.2647(4) 0.0111(8) 1 0
O5 O2- 4 e 0.6817(5) 0.1251(9) -0.0422(3) 0.0188(9) 1 0
O6 O2- 4 e 0.4051(6) 0.2091(9) -0.1231(4) 0.0154(9) 1 0
O7 O2- 4 e 0.5931(5) 0.5593(8) -0.0968(3) 0.0141(8) 1 0
loop_
_atom_site_aniso_label
_atom_site_aniso_type_symbol
_atom_site_aniso_U_11
_atom_site_aniso_U_22
_atom_site_aniso_U_33
_atom_site_aniso_U_12
_atom_site_aniso_U_13
_atom_site_aniso_U_23
Yb1 Yb3+ 0.0062(2) 0.0140(2) 0.0038(2) 0.00031(7) 0.00003(12) 0.00018(7)
P1 P5+ 0.0059(7) 0.0135(7) 0.0039(7) 0.0000(4) 0.0001(6) -0.0001(4)
P2 P5+ 0.0065(7) 0.0143(6) 0.0032(7) -0.0002(5) -0.0011(5) 0.0005(5)
Na1 Na1+ 0.0181(15) 0.0211(14) 0.0180(15) 0.0018(9) 0.0020(12) -0.0005(9)
O1 O2- 0.017(3) 0.033(3) 0.006(2) 0.0033(15) 0.005(2) 0.0006(15)
O2 O2- 0.0145(18) 0.0143(19) 0.0054(17) -0.0024(15) 0.0004(14) 0.0006(14)
O3 O2- 0.0133(19) 0.0162(19) 0.0059(18) 0.0051(15) 0.0003(14) 0.0015(15)
O4 O2- 0.0045(17) 0.021(2) 0.008(2) -0.0014(14) 0.0007(15) 0.0016(14)
O5 O2- 0.022(2) 0.022(2) 0.009(2) 0.0024(17) -0.0040(16) 0.0020(16)
O6 O2- 0.010(2) 0.029(2) 0.010(2) -0.0031(18) 0.0067(17) -0.0053(18)
O7 O2- 0.0159(19) 0.0140(19) 0.0097(18) -0.0010(15) -0.0026(15) 0.0017(15)
#End of TTdata_409801-ICSD