
#(C) 2019 by FIZ Karlsruhe - Leibniz Institute for Information Infrastructure.  All rights reserved.
data_409876-ICSD
_database_code_ICSD 409876
_audit_creation_date 2007-04-01
_chemical_name_systematic 'Dicalcium sodium monohydrogen diarsenate hexahydrate'
_chemical_formula_structural 'Ca2 Na (H As O4) (As O4) (H2 O)6'
_chemical_formula_sum 'H13 As2 Ca2 Na1 O14'
_exptl_crystal_density_diffrn 2.51
_publ_section_title

;
Crystal structure of dicalcium sodium monohydrogen diarsenate hexahydrate, Ca2
Na (H As O4) (As O4) Â· 6H2O
;
loop_
_citation_id
_citation_journal_full
_citation_year
_citation_journal_volume
_citation_page_first
_citation_page_last
_citation_journal_id_ASTM
primary 'Zeitschrift fuer Kristallographie - New Crystal Structures' 2006 221
241 242 ZKNSFT
loop_
_publ_author_name
'Jimenez, A.'
'Rodriguez, J.D.'
'Torre-Fernandez, L.'
'Prieto, M.'
'Garcia Granda, S.'
_cell_length_a 6.680(5)
_cell_length_b 8.223(4)
_cell_length_c 12.537(3)
_cell_angle_alpha 73.46(5)
_cell_angle_beta 78.89(4)
_cell_angle_gamma 87.47(5)
_cell_volume 647.74
_cell_formula_units_Z 2
_symmetry_space_group_name_H-M 'P -1'
_symmetry_Int_Tables_number 2
_refine_ls_R_factor_all 0.0985
loop_
_symmetry_equiv_pos_site_id
_symmetry_equiv_pos_as_xyz
1 '-x, -y, -z'
2 'x, y, z'
loop_
_atom_type_symbol
_atom_type_oxidation_number
As5+ 5
Ca2+ 2
Na1+ 1
O2- -2
H1+ 1
O2- -2
H1+ 1
O2- -2
H1+ 1
O2- -2
H1+ 1
O2- -2
H1+ 1
O2- -2
H1+ 1
O2- -2
H1+ 1
loop_
_atom_site_label
_atom_site_type_symbol
_atom_site_symmetry_multiplicity
_atom_site_Wyckoff_symbol
_atom_site_fract_x
_atom_site_fract_y
_atom_site_fract_z
_atom_site_B_iso_or_equiv
_atom_site_occupancy
_atom_site_attached_hydrogens
As1 As5+ 2 i 0.33034(12) 0.00689(10) 0.64055(8) 0.0256(3) 1 0
As2 As5+ 2 i -0.07518(12) 0.51461(10) 0.34225(8) 0.0256(3) 1 0
Ca1 Ca2+ 2 i 0.3994(3) 0.3651(2) 0.42969(17) 0.0288(4) 1 0
Ca2 Ca2+ 2 i 0.1433(2) -0.1749(2) 0.45268(16) 0.0264(4) 1 0
Na1 Na1+ 2 i 0.2626(6) -0.0458(5) 0.9542(4) 0.0427(10) 1 0
O1 O2- 2 i 0.0845(9) 0.3546(7) 0.3834(5) 0.0287(13) 1 0
O2 O2- 2 i 0.1865(8) 0.0315(6) 0.7640(5) 0.0256(3) 1 0
O3 O2- 2 i 0.4969(9) 0.1656(7) 0.5879(6) 0.0317(14) 1 0
O4 O2- 2 i 0.1740(8) 0.0220(6) 0.5505(5) 0.0256(3) 1 0
O5 O2- 2 i 0.7164(9) 0.4604(7) 0.4457(6) 0.0305(14) 1 0
O6 O2- 2 i 0.2112(10) 0.0717(8) 0.2817(6) 0.0351(15) 1 0
H1 H1+ 2 i 0.3521 0.1145 0.2434 0.053 1 0
H2 H1+ 2 i 0.1266 0.168 0.2981 0.053 1 0
O7 O2- 2 i 0.0144(9) -0.2975(7) 0.3385(6) 0.0340(15) 1 0
O8 O2- 2 i 0.3981(9) -0.2976(5) 0.9093(4) 0.0458(18) 1 0
H3 H1+ 2 i 0.4773 -0.2037 0.8484 0.069 1 0
H4 H1+ 2 i 0.2948 -0.3414 0.8756 0.069 1 0
O9 O2- 2 i 0.3920(8) -0.0926(6) 1.1229(4) 0.0463(18) 1 0
H5 H1+ 2 i 0.2984 -0.1509 1.1952 0.069 1 0
H6 H1+ 2 i 0.5302 -0.0834 1.1409 0.069 1 0
O10 O2- 2 i 0.4725(10) 0.5612(8) 0.2399(4) 0.058(2) 1 0
H7 H1+ 2 i 0.4208 0.68 0.2226 0.087 1 0
H8 H1+ 2 i 0.6211 0.5635 0.2053 0.087 1 0
O11 O2- 2 i 0.0693(8) 0.1990(6) 0.9718(4) 0.0445(18) 1 0
H9 H1+ 2 i 0.1945 0.2118 0.9112 0.067 1 0
H10 H1+ 2 i 0.0887 0.2707 1.0216 0.067 1 0
O12 O2- 2 i 0.4387(9) -0.1819(7) 0.6775(6) 0.0299(14) 1 0
O13 O2- 2 i 0.2025(12) 0.4286(10) 0.0843(8) 0.055(2) 1 0
H11 H1+ 2 i 0.2681 0.3861 0.1525 0.083 1 0
H12 H1+ 2 i 0.2214 0.5549 0.0566 0.083 1 0
O14 O2- 2 i -0.1279(9) 0.5249(7) 0.2166(6) 0.0329(14) 1 0
H13 H1+ 2 i -0.0974 0.4352 0.2015 0.049 1 0
loop_
_atom_site_aniso_label
_atom_site_aniso_type_symbol
_atom_site_aniso_U_11
_atom_site_aniso_U_22
_atom_site_aniso_U_33
_atom_site_aniso_U_12
_atom_site_aniso_U_13
_atom_site_aniso_U_23
As1 As5+ 0.0272(4) 0.0102(4) 0.0361(4) 0.0147(2) -0.0062(3) -0.0031(3)
As2 As5+ 0.0272(4) 0.0102(4) 0.0361(4) 0.0147(2) -0.0062(3) -0.0031(3)
Ca1 Ca2+ 0.0284(9) 0.0153(8) 0.0413(11) 0.0168(6) -0.0087(8) -0.0069(8)
Ca2 Ca2+ 0.0261(8) 0.0112(8) 0.0385(10) 0.0139(6) -0.0065(7) -0.0037(7)
Na1 Na1+ 0.049(2) 0.029(2) 0.047(2) 0.0190(17) -0.0105(19) -0.0089(18)
O2 O2- 0.0272(4) 0.0102(4) 0.0361(4) 0.0147(2) -0.0062(3) -0.0031(3)
O3 O2- 0.030(3) 0.015(3) 0.043(4) 0.014(2) -0.007(3) 0.001(3)
O4 O2- 0.0272(4) 0.0102(4) 0.0361(4) 0.0147(2) -0.0062(3) -0.0031(3)
O5 O2- 0.030(3) 0.017(3) 0.040(4) 0.014(2) -0.003(3) -0.006(3)
O6 O2- 0.039(3) 0.020(3) 0.043(4) 0.016(3) -0.009(3) -0.006(3)
O7 O2- 0.038(3) 0.009(3) 0.048(4) 0.014(2) -0.008(3) 0.002(3)
O8 O2- 0.053(4) 0.031(4) 0.044(4) 0.019(3) -0.006(3) -0.001(3)
O9 O2- 0.059(4) 0.030(4) 0.045(4) 0.015(3) -0.011(4) -0.003(3)
O10 O2- 0.040(4) 0.039(4) 0.073(6) 0.023(3) -0.005(4) 0.013(4)
O11 O2- 0.051(4) 0.024(3) 0.053(5) 0.019(3) -0.003(3) -0.008(3)
O12 O2- 0.034(3) 0.011(3) 0.041(4) 0.016(2) -0.010(3) -0.002(3)
O13 O2- 0.061(5) 0.036(4) 0.055(5) 0.027(4) -0.005(4) -0.001(4)
O14 O2- 0.036(3) 0.022(3) 0.036(4) 0.016(2) -0.006(3) -0.004(3)
#End of TTdata_409876-ICSD