
#(C) 2019 by FIZ Karlsruhe - Leibniz Institute for Information Infrastructure.  All rights reserved.
data_410260-ICSD
_database_code_ICSD 410260
_audit_creation_date 1999-06-02
_chemical_name_systematic 'Sodium hexaoxotrotantalate (0.74/1)'
_chemical_formula_structural 'Na0.74 (Ta3 O6)'
_chemical_formula_sum 'Na0.74 O6 Ta3'
_chemical_name_structure_type Ca1-xNb3O6
_exptl_crystal_density_diffrn 9.29
_publ_section_title
'Na0.74 Ta3 O6, ein niedervalentes Oxotantalat mit einer Ta-Ta-Mehrfachbindung'
loop_
_citation_id
_citation_journal_full
_citation_year
_citation_journal_volume
_citation_page_first
_citation_page_last
_citation_journal_id_ASTM
primary 'Zeitschrift fuer Anorganische und Allgemeine Chemie (1950) (DE)' 1999
625 178 180 ZAACAB
loop_
_publ_author_name
'Harbrecht, B.'
'Ritter, A.'
_cell_length_a 7.1350(14)
_cell_length_b 10.274(2)
_cell_length_c 6.3992(13)
_cell_angle_alpha 90.
_cell_angle_beta 90.
_cell_angle_gamma 90.
_cell_volume 469.09
_cell_formula_units_Z 4
_symmetry_space_group_name_H-M 'I m m m'
_symmetry_Int_Tables_number 71
_refine_ls_R_factor_all 0.0323
loop_
_symmetry_equiv_pos_site_id
_symmetry_equiv_pos_as_xyz
1 'x, y, -z'
2 'x, -y, z'
3 '-x, y, z'
4 '-x, -y, -z'
5 '-x, -y, z'
6 '-x, y, -z'
7 'x, -y, -z'
8 'x, y, z'
9 'x+1/2, y+1/2, -z+1/2'
10 'x+1/2, -y+1/2, z+1/2'
11 '-x+1/2, y+1/2, z+1/2'
12 '-x+1/2, -y+1/2, -z+1/2'
13 '-x+1/2, -y+1/2, z+1/2'
14 '-x+1/2, y+1/2, -z+1/2'
15 'x+1/2, -y+1/2, -z+1/2'
16 'x+1/2, y+1/2, z+1/2'
loop_
_atom_type_symbol
_atom_type_oxidation_number
Ta3+ 3.75
O2- -2
Na1+ 1
loop_
_atom_site_label
_atom_site_type_symbol
_atom_site_symmetry_multiplicity
_atom_site_Wyckoff_symbol
_atom_site_fract_x
_atom_site_fract_y
_atom_site_fract_z
_atom_site_B_iso_or_equiv
_atom_site_occupancy
_atom_site_attached_hydrogens
Ta1 Ta3+ 4 i 0 0 0.20887(9) . 1. 0
Ta2 Ta3+ 8 n 0.23535(5) 0.21779(4) 0 . 1. 0
O1 O2- 16 o 0.1899(7) 0.1358(6) 0.2806(8) . 1. 0
O2 O2- 4 g 0 0.3135(13) 0 . 1. 0
O3 O2- 4 h 0 0.3350(13) 0.5 . 1. 0
Na1 Na1+ 4 j 0 0.5 0.195(3) . 0.74(5) 0
loop_
_atom_site_aniso_label
_atom_site_aniso_type_symbol
_atom_site_aniso_U_11
_atom_site_aniso_U_22
_atom_site_aniso_U_33
_atom_site_aniso_U_12
_atom_site_aniso_U_13
_atom_site_aniso_U_23
Ta1 Ta3+ 0.0036(3) 0.0061(4) 0.0055(3) 0 0 0
Ta2 Ta3+ 0.0057(2) 0.0077(3) 0.0050(3) -.00116(12) 0 0
O1 O2- 0.006(2) 0.007(3) 0.009(2) 0.0006(19) 0.0002(18) -.0009(17)
O2 O2- 0.012(5) 0.015(6) 0.007(5) 0 0 0
O3 O2- 0.014(5) 0.010(7) 0.014(5) 0 0 0
Na1 Na1+ 0.024(6) 0.034(10) 0.046(9) 0 0 0
#End of TTdata_410260-ICSD