
#(C) 2019 by FIZ Karlsruhe - Leibniz Institute for Information Infrastructure.  All rights reserved.
data_411004-ICSD
_database_code_ICSD 411004
_audit_creation_date 2002-10-01
_audit_update_record 2009-02-01
_chemical_name_systematic
'Tetrasodium tris(hydrogenselenate(VI)) dihydrogenphosphate(V)'
_chemical_formula_structural 'Na4 (H Se O4)3 (H2 P O4)'
_chemical_formula_sum 'H5 Na4 O16 P1 Se3'
_chemical_name_structure_type K4(HSO4)3H2PO4
_exptl_crystal_density_diffrn 2.99
_publ_section_title

;
Alkali metal hydrogen selenate-phosphates M2 H3 (Se O4) (P O4) (M= Rb, K) and
M4 H5 (Se O4)3 (P O4) (M= K, Na)
;
loop_
_citation_id
_citation_journal_full
_citation_year
_citation_journal_volume
_citation_page_first
_citation_page_last
_citation_journal_id_ASTM
primary Kristallografiya 2000 45 441 447 KRISAJ
loop_
_publ_author_name
'Troyanov, S.I.'
'Morozov, I.V.'
'Rybakov, V.B.'
'Kemnitz, E.'
_cell_length_a 7.029(4)
_cell_length_b 7.089(4)
_cell_length_c 7.130(4)
_cell_angle_alpha 79.84(4)
_cell_angle_beta 85.57(4)
_cell_angle_gamma 80.34(4)
_cell_volume 344.33
_cell_formula_units_Z 1
_symmetry_space_group_name_H-M 'P -1'
_symmetry_Int_Tables_number 2
_refine_ls_R_factor_all 0.0828
loop_
_symmetry_equiv_pos_site_id
_symmetry_equiv_pos_as_xyz
1 '-x, -y, -z'
2 'x, y, z'
loop_
_atom_type_symbol
_atom_type_oxidation_number
Se6+ 6
P5+ 5
Na1+ 1
O2- -2
H1+ 1
O2- -2
H1+ 1
O2- -2
H1+ 1
O2- -2
H1+ 1
loop_
_atom_site_label
_atom_site_type_symbol
_atom_site_symmetry_multiplicity
_atom_site_Wyckoff_symbol
_atom_site_fract_x
_atom_site_fract_y
_atom_site_fract_z
_atom_site_B_iso_or_equiv
_atom_site_occupancy
_atom_site_attached_hydrogens
Se1 Se6+ 2 i 0.11857(9) 0.25032(11) 0.29669(10) . 1. 0
Se2 Se6+ 2 i 0.54081(14) 0.7192(2) 0.2092(2) . 0.5 0
P1 P5+ 2 i 0.54081(14) 0.7192(2) 0.2092(2) . 0.5 0
Na1 Na1+ 2 i 0.6490(5) 0.1517(5) 0.3291(6) . 1. 0
Na2 Na1+ 2 i 0.0399(4) 0.7926(5) 0.1709(5) . 1. 0
O1 O2- 2 i -.0199(7) 0.1428(7) 0.1939(8) . 1. 0
O2 O2- 2 i -.0052(8) 0.3200(8) 0.4883(8) . 1. 0
H1 H1+ 2 i -0.000(29) 0.4322(83) 0.482(28) 0.031 0.5 0
O3 O2- 2 i 0.3145(7) 0.1052(8) 0.3605(8) . 1. 0
O4 O2- 2 i 0.1601(8) 0.4520(8) 0.1642(8) . 1. 0
O5 O2- 2 i 0.6446(8) 0.5082(9) 0.1646(8) . 1. 0
H2 H1+ 2 i 0.711(12) 0.536(14) 0.0735(86) 0.042 1. 0
O6 O2- 2 i 0.3719(7) 0.7972(8) 0.0697(8) . 1. 0
H3 H1+ 2 i 0.351(22) 0.912(12) -0.003(18) 0.028 0.5 0
O7 O2- 2 i 0.6930(7) 0.8599(8) 0.1817(9) . 1. 0
O8 O2- 2 i 0.4591(8) 0.6706(8) 0.4194(8) . 1. 0
H4 H1+ 2 i 0.503(28) 0.566(14) 0.481(26) 0.035 0.5 0
loop_
_atom_site_aniso_label
_atom_site_aniso_type_symbol
_atom_site_aniso_U_11
_atom_site_aniso_U_22
_atom_site_aniso_U_33
_atom_site_aniso_U_12
_atom_site_aniso_U_13
_atom_site_aniso_U_23
Se1 Se6+ 0.0109(4) 0.0172(4) 0.0170(4) -.0025(3) -.0003(3) -.0039(3)
Se2 Se6+ 0.0136(5) 0.0209(7) 0.0203(6) -.0033(4) -.0002(4) -.0049(5)
P1 P5+ 0.0136(5) 0.0209(7) 0.0203(6) -.0033(4) -.0002(4) -.0049(5)
Na1 Na1+ 0.026(2) 0.040(2) 0.065(3) -.008(2) 0.017(2) -.020(2)
Na2 Na1+ 0.022(2) 0.026(2) 0.028(2) -.0019(13) 0.0025(12) -.0050(14)
O1 O2- 0.025(3) 0.013(3) 0.029(3) -.010(2) -.007(2) -.001(2)
O2 O2- 0.030(3) 0.026(3) 0.021(3) -.001(3) 0.009(2) -.008(3)
O3 O2- 0.014(3) 0.033(3) 0.038(4) 0.009(2) -.010(2) -.009(3)
O4 O2- 0.031(3) 0.022(3) 0.022(3) -.010(2) 0.009(2) -.002(2)
O5 O2- 0.025(3) 0.033(3) 0.026(3) 0.000(2) 0.006(2) -.012(3)
O6 O2- 0.021(3) 0.019(3) 0.030(3) -.002(2) -.009(2) 0.000(2)
O7 O2- 0.018(3) 0.035(4) 0.051(4) -.018(2) 0.010(3) -.018(3)
O8 O2- 0.037(3) 0.026(3) 0.020(3) 0.007(3) 0.007(2) -.006(3)
#End of TTdata_411004-ICSD