
#(C) 2019 by FIZ Karlsruhe - Leibniz Institute for Information Infrastructure.  All rights reserved.
data_411059-ICSD
_database_code_ICSD 411059
_audit_creation_date 2002-04-01
_chemical_name_systematic
'Tetrasodium hexahydroxochromate(III) hemi(disulfide) hydrate'
_chemical_formula_structural 'Na4 (Cr (O H)6) (S2)0.5 (H2 O)'
_chemical_formula_sum 'H8 Cr1 Na4 O7 S1'
_exptl_crystal_density_diffrn 2.29
_publ_section_title

;
Ueber die komplexen Hydroxide des Chroms: Na9 (Cr (O H)6)2 (O H)3 . 6(H2 O)
und Na4 (Cr (O H)6) X . H2 O (X=Cl, (S2)1/2) - Synthese, Kristallstruktur und
thermisches Verhalten
;
loop_
_citation_id
_citation_journal_full
_citation_year
_citation_journal_volume
_citation_page_first
_citation_page_last
_citation_journal_id_ASTM
primary 'Zeitschrift fuer Anorganische und Allgemeine Chemie (1950) (DE)' 2000
626 1004 1011 ZAACAB
loop_
_publ_author_name
'Hinz, D.'
_cell_length_a 5.8081(11)
_cell_length_b 13.665(3)
_cell_length_c 11.150(2)
_cell_angle_alpha 90.
_cell_angle_beta 103.71(2)
_cell_angle_gamma 90.
_cell_volume 859.74
_cell_formula_units_Z 4
_symmetry_space_group_name_H-M 'P 1 21/c 1'
_symmetry_Int_Tables_number 14
_refine_ls_R_factor_all 0.0506
loop_
_symmetry_equiv_pos_site_id
_symmetry_equiv_pos_as_xyz
1 'x, -y+1/2, z+1/2'
2 '-x, -y, -z'
3 '-x, y+1/2, -z+1/2'
4 'x, y, z'
loop_
_atom_type_symbol
_atom_type_oxidation_number
Na1+ 1
Cr3+ 3
S1- -1
O2- -2
H1+ 1
loop_
_atom_site_label
_atom_site_type_symbol
_atom_site_symmetry_multiplicity
_atom_site_Wyckoff_symbol
_atom_site_fract_x
_atom_site_fract_y
_atom_site_fract_z
_atom_site_B_iso_or_equiv
_atom_site_occupancy
_atom_site_attached_hydrogens
Na1 Na1+ 4 e 0.2500(2) 0.55684(8) 0.49383(11) . 1. 0
Na2 Na1+ 4 e 0.0126(2) 0.31732(8) 0.76372(10) . 1. 0
Na3 Na1+ 4 e 0.5066(2) 0.29498(8) 0.27872(10) . 1. 0
Na4 Na1+ 4 e 0.2459(2) 0.79974(8) 0.47506(11) . 1. 0
Cr1 Cr3+ 4 e 0.25093(8) 0.31473(3) 0.51721(4) . 1. 0
S1 S1- 4 e 0.89440(17) 0.48170(6) 0.91071(8) . 1. 0
O1 O2- 4 e 0.1386(4) 0.42107(13) 0.61298(17) . 1. 0
O2 O2- 4 e 0.4177(4) 0.67634(13) 0.36807(17) . 1. 0
O3 O2- 4 e 0.3582(4) 0.40998(14) 0.40440(17) . 1. 0
O4 O2- 4 e 0.9220(4) 0.31039(14) 0.40253(17) . 1. 0
O5 O2- 4 e 0.3617(4) 0.20655(13) 0.42417(18) . 1. 0
O6 O2- 4 e 0.1467(4) 0.21957(13) 0.62855(17) . 1. 0
O7 O2- 4 e 0.6454(5) 0.43121(17) 0.1676(2) . 1. 0
H1 H1+ 4 e 0.2463 0.4431 0.6843 0.031(11) 1. 0
H2 H1+ 4 e 0.4231 0.6258 0.3193 0.032(11) 1. 0
H3 H1+ 4 e 0.255 0.4219 0.3354 0.017(9) 1. 0
H4 H1+ 4 e 0.8662 0.3489 0.3363 0.059(15) 1. 0
H5 H1+ 4 e 0.339 0.1501 0.4357 0.024(10) 1. 0
H6 H1+ 4 e 0.1665 0.1546 0.6228 0.021(9) 1. 0
H7 H1+ 4 e 0.7493 0.4517 0.1462 0.015(10) 1. 0
H8 H1+ 4 e 0.4993 0.4688 0.1452 0.060(15) 1. 0
loop_
_atom_site_aniso_label
_atom_site_aniso_type_symbol
_atom_site_aniso_U_11
_atom_site_aniso_U_22
_atom_site_aniso_U_33
_atom_site_aniso_U_12
_atom_site_aniso_U_13
_atom_site_aniso_U_23
Na1 Na1+ 0.0074(7) 0.0116(5) 0.0232(6) 0.0006(4) 0.0020(5) 0.0004(4)
Na2 Na1+ 0.0127(7) 0.0193(6) 0.0122(6) 0.0024(5) 0.0038(5) 0.0015(5)
Na3 Na1+ 0.0110(8) 0.0220(6) 0.0109(6) -.0021(4) 0.0020(5) -.0033(4)
Na4 Na1+ 0.0083(7) 0.0199(6) 0.0154(6) -.0006(4) 0.0009(5) 0.0003(4)
Cr1 Cr3+ 0.0038(3) 0.0068(2) 0.0056(2) -.00007(16) 0.00091(16) -.00018(16)
S1 S1- 0.0286(6) 0.0158(4) 0.0270(4) 0.0008(3) 0.0092(4) 0.0011(3)
O1 O2- 0.0111(13) 0.0117(9) 0.0095(10) 0.0018(8) 0.0024(8) -.0027(7)
O2 O2- 0.0104(12) 0.0111(9) 0.0089(9) -.0003(8) 0.0011(8) -.0011(7)
O3 O2- 0.0109(12) 0.0118(9) 0.0079(9) -.0013(7) 0.0015(8) 0.0014(7)
O4 O2- 0.0070(12) 0.0141(9) 0.0076(9) 0.0001(8) -.0006(8) 0.0018(8)
O5 O2- 0.0091(12) 0.0089(9) 0.0114(10) 0.0028(7) 0.0022(8) -.0025(7)
O6 O2- 0.0102(12) 0.0092(8) 0.0087(9) -.0012(7) 0.0014(8) 0.0014(7)
O7 O2- 0.0279(17) 0.0283(12) 0.0289(14) -.0050(11) 0.0136(12) 0.0033(10)
#End of TTdata_411059-ICSD