
#(C) 2019 by FIZ Karlsruhe - Leibniz Institute for Information Infrastructure.  All rights reserved.
data_411123-ICSD
_database_code_ICSD 411123
_audit_creation_date 2002-04-01
_chemical_name_systematic 'Dicesium sodium hexacyanoferrate(III)'
_chemical_formula_structural 'Cs2 Na (Fe (C N)6)'
_chemical_formula_sum 'C6 Cs2 Fe1 N6 Na1'
_chemical_name_structure_type LiCs2Cr(CN)6
_exptl_crystal_density_diffrn 2.63
_publ_section_title

;
Kristallstrukturbestimmungen an Cs2 Na Cr (C N)6 und weiteren Verbindungen A2
B M (C N)6 (A= Rb, Cs; B= Na, K, Rb, NH4; M= Cr, Mn, Fe, Co): Oktaederkippung
und Toleranzfaktor von Cyanokryolithen
;
loop_
_citation_id
_citation_journal_full
_citation_year
_citation_journal_volume
_citation_page_first
_citation_page_last
_citation_journal_id_ASTM
primary 'Zeitschrift fuer Anorganische und Allgemeine Chemie (1950) (DE)' 2000
626 1561 1566 ZAACAB
loop_
_publ_author_name
'Peschel, S.'
'Ziegler, B.'
'Schwarten, M.'
'Babel, D.'
_cell_length_a 7.568(4)
_cell_length_b 7.705(2)
_cell_length_c 10.856(2)
_cell_angle_alpha 90.
_cell_angle_beta 89.94(3)
_cell_angle_gamma 90.
_cell_volume 633.03
_cell_formula_units_Z 2
_symmetry_space_group_name_H-M 'P 1 21/n 1'
_symmetry_Int_Tables_number 14
_refine_ls_R_factor_all 0.034
loop_
_symmetry_equiv_pos_site_id
_symmetry_equiv_pos_as_xyz
1 '-x+1/2, y+1/2, -z+1/2'
2 '-x, -y, -z'
3 'x+1/2, -y+1/2, z+1/2'
4 'x, y, z'
loop_
_atom_type_symbol
_atom_type_oxidation_number
Cs1+ 1
Fe3+ 3
Na1+ 1
N3- -3
C2+ 2
loop_
_atom_site_label
_atom_site_type_symbol
_atom_site_symmetry_multiplicity
_atom_site_Wyckoff_symbol
_atom_site_fract_x
_atom_site_fract_y
_atom_site_fract_z
_atom_site_B_iso_or_equiv
_atom_site_occupancy
_atom_site_attached_hydrogens
Cs1 Cs1+ 4 e -.00915(4) 0.45986(5) 0.24998(3) . 1. 0
Fe1 Fe3+ 2 a 0.5 0.5 0.5 . 1. 0
Na1 Na1+ 2 b 0.5 0.5 0 . 1. 0
N1 N3- 4 e 0.4319(5) 0.5136(7) 0.2215(3) . 1. 0
N2 N3- 4 e 0.6702(5) 0.2275(6) 0.0326(4) . 1. 0
N3 N3- 4 e 0.2291(5) 0.3265(5) -.0382(4) . 1. 0
C1 C2+ 4 e 0.4583(5) 0.5073(6) 0.3240(4) . 1. 0
C2 C2+ 4 e 0.7925(5) 0.1435(5) 0.0200(4) . 1. 0
C3 C2+ 4 e 0.1432(5) 0.2043(6) -.0228(4) . 1. 0
loop_
_atom_site_aniso_label
_atom_site_aniso_type_symbol
_atom_site_aniso_U_11
_atom_site_aniso_U_22
_atom_site_aniso_U_33
_atom_site_aniso_U_12
_atom_site_aniso_U_13
_atom_site_aniso_U_23
Cs1 Cs1+ 0.0498(2) 0.0517(2) 0.0384(2) 0.0127(2) -.0002(1) -.0014(2)
Fe1 Fe3+ 0.0209(3) 0.0167(4) 0.0145(3) -.0003(3) 0.0005(3) -.0004(3)
Na1 Na1+ 0.023(1) 0.021(1) 0.026(1) 0.0006(8) -.0012(9) 0.000(1)
N1 N3- 0.061(2) 0.065(3) 0.018(2) -.003(2) -.002(2) -.002(2)
N2 N3- 0.038(2) 0.042(3) 0.054(3) 0.016(2) 0.005(2) 0.008(2)
N3 N3- 0.041(2) 0.036(3) 0.053(3) -.014(2) -.007(2) 0.007(2)
C1 C2+ 0.029(2) 0.029(2) 0.026(2) -.001(2) 0.003(2) -.001(2)
C2 C2+ 0.030(2) 0.023(2) 0.026(2) -.003(2) 0.003(2) 0.001(2)
C3 C2+ 0.025(2) 0.027(2) 0.026(2) 0.002(2) -.003(2) 0.004(2)
#End of TTdata_411123-ICSD