
#(C) 2019 by FIZ Karlsruhe - Leibniz Institute for Information Infrastructure.  All rights reserved.
data_411126-ICSD
_database_code_ICSD 411126
_audit_creation_date 2002-04-01
_chemical_name_systematic 'Dicesium sodium hexacyanocobaltate(III)'
_chemical_formula_structural 'Cs2 Na (Co (C N)6)'
_chemical_formula_sum 'C6 Co1 Cs2 N6 Na1'
_chemical_name_structure_type LiCs2Cr(CN)6
_exptl_crystal_density_diffrn 2.68
_publ_section_title

;
Kristallstrukturbestimmungen an Cs2 Na Cr (C N)6 und weiteren Verbindungen A2
B M (C N)6 (A= Rb, Cs; B= Na, K, Rb, NH4; M= Cr, Mn, Fe, Co): Oktaederkippung
und Toleranzfaktor von Cyanokryolithen
;
loop_
_citation_id
_citation_journal_full
_citation_year
_citation_journal_volume
_citation_page_first
_citation_page_last
_citation_journal_id_ASTM
primary 'Zeitschrift fuer Anorganische und Allgemeine Chemie (1950) (DE)' 2000
626 1561 1566 ZAACAB
loop_
_publ_author_name
'Peschel, S.'
'Ziegler, B.'
'Schwarten, M.'
'Babel, D.'
_cell_length_a 7.551(2)
_cell_length_b 7.648(1)
_cell_length_c 10.810(3)
_cell_angle_alpha 90.
_cell_angle_beta 89.99(2)
_cell_angle_gamma 90.
_cell_volume 624.28
_cell_formula_units_Z 2
_symmetry_space_group_name_H-M 'P 1 21/n 1'
_symmetry_Int_Tables_number 14
_refine_ls_R_factor_all 0.049
loop_
_symmetry_equiv_pos_site_id
_symmetry_equiv_pos_as_xyz
1 '-x+1/2, y+1/2, -z+1/2'
2 '-x, -y, -z'
3 'x+1/2, -y+1/2, z+1/2'
4 'x, y, z'
loop_
_atom_type_symbol
_atom_type_oxidation_number
Cs1+ 1
Co3+ 3
Na1+ 1
N3- -3
C2+ 2
loop_
_atom_site_label
_atom_site_type_symbol
_atom_site_symmetry_multiplicity
_atom_site_Wyckoff_symbol
_atom_site_fract_x
_atom_site_fract_y
_atom_site_fract_z
_atom_site_B_iso_or_equiv
_atom_site_occupancy
_atom_site_attached_hydrogens
Cs1 Cs1+ 4 e 0.50771(6) -.03538(6) 0.25004(4) . 1. 0
Co1 Co3+ 2 a 0 0 0 . 1. 0
Na1 Na1+ 2 b 0 0 0.5 . 1. 0
N1 N3- 4 e 0.0638(8) 0.0120(9) 0.2772(5) . 1. 0
N2 N3- 4 e -.3257(7) 0.2282(7) 0.0279(6) . 1. 0
N3 N3- 4 e 0.2282(7) 0.3222(7) -.0345(5) . 1. 0
C1 C2+ 4 e 0.0388(7) 0.0055(7) 0.1723(5) . 1. 0
C2 C2+ 4 e -.2024(7) 0.1425(7) 0.0168(5) . 1. 0
C3 C2+ 4 e 0.1433(7) 0.2011(7) -.0210(5) . 1. 0
loop_
_atom_site_aniso_label
_atom_site_aniso_type_symbol
_atom_site_aniso_U_11
_atom_site_aniso_U_22
_atom_site_aniso_U_33
_atom_site_aniso_U_12
_atom_site_aniso_U_13
_atom_site_aniso_U_23
Cs1 Cs1+ 0.0450(3) 0.0497(3) 0.0379(3) -.0127(2) 0.0005(2) 0.0019(2)
Co1 Co3+ 0.0166(4) 0.0139(4) 0.0130(4) 0.0003(3) 0.0009(3) 0.0005(4)
Na1 Na1+ 0.0251(14) 0.0178(11) 0.0204(14) 0.0002(11) -.0007(12) -.0002(13)
N1 N3- 0.048(3) 0.063(4) 0.022(2) 0.003(3) 0.000(2) 0.001(3)
N2 N3- 0.031(2) 0.036(3) 0.056(4) 0.012(2) 0.006(3) 0.005(3)
N3 N3- 0.034(3) 0.034(3) 0.051(4) -.013(2) -.006(3) 0.008(3)
C1 C2+ 0.022(2) 0.028(2) 0.022(3) 0.001(2) 0.001(2) 0.000(2)
C2 C2+ 0.024(2) 0.021(2) 0.024(3) -.001(2) 0.001(2) 0.001(2)
C3 C2+ 0.022(2) 0.026(2) 0.021(3) 0.001(2) -.001(2) 0.001(2)
#End of TTdata_411126-ICSD