
#(C) 2019 by FIZ Karlsruhe - Leibniz Institute for Information Infrastructure.  All rights reserved.
data_411120-ICSD
_database_code_ICSD 411120
_audit_creation_date 2002-04-01
_chemical_name_systematic 'Dicesium sodium hexacyanochromate(III)'
_chemical_formula_structural 'Cs2 Na (Cr (C N)6)'
_chemical_formula_sum 'C6 Cr1 Cs2 N6 Na1'
_chemical_name_structure_type LiCs2Cr(CN)6
_exptl_crystal_density_diffrn 2.48
_publ_section_title

;
Kristallstrukturbestimmungen an Cs2 Na Cr (C N)6 und weiteren Verbindungen A2
B M (C N)6 (A= Rb, Cs; B= Na, K, Rb, NH4; M= Cr, Mn, Fe, Co): Oktaederkippung
und Toleranzfaktor von Cyanokryolithen
;
loop_
_citation_id
_citation_journal_full
_citation_year
_citation_journal_volume
_citation_page_first
_citation_page_last
_citation_journal_id_ASTM
primary 'Zeitschrift fuer Anorganische und Allgemeine Chemie (1950) (DE)' 2000
626 1561 1566 ZAACAB
loop_
_publ_author_name
'Peschel, S.'
'Ziegler, B.'
'Schwarten, M.'
'Babel, D.'
_cell_length_a 7.6322(4)
_cell_length_b 7.8980(5)
_cell_length_c 11.0239(4)
_cell_angle_alpha 90.
_cell_angle_beta 90.093(4)
_cell_angle_gamma 90.
_cell_volume 664.51
_cell_formula_units_Z 2
_symmetry_space_group_name_H-M 'P 1 21/n 1'
_symmetry_Int_Tables_number 14
_refine_ls_R_factor_all 0.0438
loop_
_symmetry_equiv_pos_site_id
_symmetry_equiv_pos_as_xyz
1 '-x+1/2, y+1/2, -z+1/2'
2 '-x, -y, -z'
3 'x+1/2, -y+1/2, z+1/2'
4 'x, y, z'
loop_
_atom_type_symbol
_atom_type_oxidation_number
Cs1+ 1
Na1+ 1
Cr3+ 3
C2+ 2
N3- -3
C2+ 2
N3- -3
C2+ 2
N3- -3
loop_
_atom_site_label
_atom_site_type_symbol
_atom_site_symmetry_multiplicity
_atom_site_Wyckoff_symbol
_atom_site_fract_x
_atom_site_fract_y
_atom_site_fract_z
_atom_site_B_iso_or_equiv
_atom_site_occupancy
_atom_site_attached_hydrogens
Cs1 Cs1+ 4 e 0.51428(4) -.05280(4) 0.25001(3) . 1. 0
Na1 Na1+ 2 b 0 0 0.5 . 1. 0
Cr1 Cr3+ 2 a 0 0 0 . 1. 0
C1 C2+ 4 e 0.0525(5) 0.0108(5) 0.1836(3) . 1. 0
N1 N3- 4 e 0.0814(6) 0.0203(7) 0.2844(3) . 1. 0
C2 C2+ 4 e -.2201(5) 0.1485(5) 0.0251(3) . 1. 0
N2 N3- 4 e -.3412(5) 0.2296(5) 0.0394(4) . 1. 0
C3 C2+ 4 e 0.1479(5) 0.2161(5) -.0281(3) . 1. 0
N3 N3- 4 e 0.2289(5) 0.3340(5) -.0454(4) . 1. 0
loop_
_atom_site_aniso_label
_atom_site_aniso_type_symbol
_atom_site_aniso_U_11
_atom_site_aniso_U_22
_atom_site_aniso_U_33
_atom_site_aniso_U_12
_atom_site_aniso_U_13
_atom_site_aniso_U_23
Cs1 Cs1+ 0.0509(2) 0.0503(2) 0.0437(2) -.00991(13) -.00045(11) 0.00136(12)
Na1 Na1+ 0.0271(9) 0.0281(9) 0.0234(8) -.0003(7) -.0010(7) 0.0008(7)
Cr1 Cr3+ 0.0232(3) 0.0211(3) 0.0198(3) 0.0002(2) 0.0003(2) 0.0009(2)
C1 C2+ 0.035(2) 0.036(2) 0.0257(15) 0.0020(14) 0.0013(13) 0.0012(14)
N1 N3- 0.062(2) 0.070(3) 0.025(2) 0.004(2) 0.000(2) -.001(2)
C2 C2+ 0.030(2) 0.030(2) 0.030(2) 0.0007(13) 0.0004(12) 0.0015(13)
N2 N3- 0.043(2) 0.042(2) 0.062(2) 0.014(2) 0.007(2) 0.006(2)
C3 C2+ 0.0292(15) 0.029(2) 0.031(2) -.0002(13) -.0011(12) 0.0011(13)
N3 N3- 0.046(2) 0.040(2) 0.059(2) -.014(2) -.008(2) 0.008(2)
#End of TTdata_411120-ICSD