
#(C) 2019 by FIZ Karlsruhe - Leibniz Institute for Information Infrastructure.  All rights reserved.
data_411155-ICSD
_database_code_ICSD 411155
_audit_creation_date 2002-10-01
_chemical_name_systematic
'Sodium carbon nitrogen silicon oxide (0.26/3.6/0.3/12/24)'
_chemical_formula_structural 'Na0.26 C3.6 N0.3 Si12 O24'
_chemical_formula_sum 'C3.6 N0.3 Na0.26 O24 Si12'
_chemical_name_structure_type Zeolite-ZSM-5-frame
_chemical_name_mineral 'Silicalite (Na,C,N-bearing)'
_exptl_crystal_density_diffrn 1.91
_publ_section_title

;
Iron location in Fe-silicalites by synchrotron radiation single crystal X-ray
diffraction
;
loop_
_citation_id
_citation_journal_full
_citation_year
_citation_journal_volume
_citation_page_first
_citation_page_last
_citation_journal_id_ASTM
primary 'Journal of Physical Chemistry B' 2000 104 9951 9953 JPCBFK
loop_
_publ_author_name
'Milanesio, M.'
'Lamberti, C.'
'Aiello, R.'
'Testa, F.'
'Piana, M.'
'Viterbo, D.'
_cell_length_a 20.064(2)
_cell_length_b 19.9810(20)
_cell_length_c 13.421(1)
_cell_angle_alpha 90.
_cell_angle_beta 90.
_cell_angle_gamma 90.
_cell_volume 5380.46
_cell_formula_units_Z 8
_symmetry_space_group_name_H-M 'P n m a'
_symmetry_Int_Tables_number 62
_refine_ls_R_factor_all 0.0651
loop_
_symmetry_equiv_pos_site_id
_symmetry_equiv_pos_as_xyz
1 'x+1/2, y, -z+1/2'
2 'x, -y+1/2, z'
3 '-x+1/2, y+1/2, z+1/2'
4 '-x, -y, -z'
5 '-x+1/2, -y, z+1/2'
6 '-x, y+1/2, -z'
7 'x+1/2, -y+1/2, -z+1/2'
8 'x, y, z'
loop_
_atom_type_symbol
_atom_type_oxidation_number
Si4+ 4
O2- -2
Na0+ 0
N0+ 0
C0+ 0
loop_
_atom_site_label
_atom_site_type_symbol
_atom_site_symmetry_multiplicity
_atom_site_Wyckoff_symbol
_atom_site_fract_x
_atom_site_fract_y
_atom_site_fract_z
_atom_site_B_iso_or_equiv
_atom_site_occupancy
_atom_site_attached_hydrogens
Si1 Si4+ 8 d 0.42327(6) 0.05802(6) -.33762(9) . 1. 0
Si2 Si4+ 8 d 0.30766(6) 0.02971(6) -.19246(9) . 1. 0
Si3 Si4+ 8 d 0.28006(6) 0.06152(6) 0.02930(9) . 1. 0
Si4 Si4+ 8 d 0.12267(6) 0.06294(6) 0.02653(9) . 1. 0
Si5 Si4+ 8 d 0.07194(6) 0.02703(6) -.18630(9) . 1. 0
Si6 Si4+ 8 d 0.18584(6) 0.06031(6) -.33088(10) . 1. 0
Si7 Si4+ 8 d 0.42339(6) -.17259(6) -.32756(10) . 1. 0
Si8 Si4+ 8 d 0.30839(6) -.12826(6) -.18747(9) . 1. 0
Si9 Si4+ 8 d 0.27394(7) -.17392(6) 0.02802(9) . 1. 0
Si10 Si4+ 8 d 0.12085(6) -.17375(6) 0.02906(9) . 1. 0
Si11 Si4+ 8 d 0.07131(6) -.13085(6) -.18358(9) . 1. 0
Si12 Si4+ 8 d 0.18733(6) -.17315(6) -.32132(9) . 1. 0
O1 O2- 8 d 0.3722(2) 0.0590(2) -.2458(3) . 1. 0
O2 O2- 8 d 0.30873(19) 0.05888(19) -.0814(3) . 1. 0
O3 O2- 8 d 0.20118(19) 0.0601(3) 0.0291(4) . 1. 0
O4 O2- 8 d 0.0974(2) 0.06034(19) -.0853(3) . 1. 0
O5 O2- 8 d 0.11456(19) 0.05503(19) -.2774(3) . 1. 0
O6 O2- 8 d 0.24331(19) 0.0558(2) -.2483(3) . 1. 0
O7 O2- 8 d 0.37397(19) -.1581(2) -.2373(3) . 1. 0
O8 O2- 8 d 0.30746(19) -.1515(3) -.0741(3) . 1. 0
O9 O2- 8 d 0.19735(16) -.1518(2) 0.0383(3) . 1. 0
O10 O2- 8 d 0.0929(2) -.1624(3) -.0803(3) . 1. 0
O11 O2- 8 d 0.11647(19) -.1594(2) -.2719(3) . 1. 0
O12 O2- 8 d 0.24454(19) -.1546(3) -.2465(3) . 1. 0
O13 O2- 8 d 0.3109(3) -.0488(2) -.1936(4) . 1. 0
O14 O2- 8 d 0.0788(2) -.05166(18) -.1783(4) . 1. 0
O15 O2- 8 d 0.4215(2) 0.12803(17) -.3946(3) . 1. 0
O16 O2- 8 d 0.4070(2) -.00071(19) -.4139(3) . 1. 0
O17 O2- 8 d 0.4021(2) -.13133(18) -.4250(3) . 1. 0
O18 O2- 8 d 0.18771(17) 0.13034(16) -.3872(3) . 1. 0
O19 O2- 8 d 0.1922(2) 0.00026(19) -.4091(3) . 1. 0
O20 O2- 8 d 0.1937(2) -.12995(17) -.4220(3) . 1. 0
O21 O2- 8 d -.00355(15) 0.04858(19) -.2075(3) . 1. 0
O22 O2- 8 d -.00398(16) -.1515(2) -.2083(3) . 1. 0
O23 O2- 4 c 0.4218(3) -.25 -.3551(4) . 1. 0
O24 O2- 4 c 0.1916(3) -.25 -.3533(4) . 1. 0
O25 O2- 4 c 0.2907(3) -.25 0.0587(4) . 1. 0
O26 O2- 4 c 0.1084(3) -.25 0.0626(4) . 1. 0
Na1 Na0+ 8 d 0.2222(6) -.2747(5) -.0707(9) 0.049(3) 0.2 0
Na2 Na0+ 8 d 0.169(3) -.223(3) -.071(4) 0.077(15) 0.06 0
N1 N0+ 4 c 0.4809(7) 0.25 -.1125(12) 0.060(4) 0.6 0
C1 C0+ 8 d 0.495(2) 0.179(3) -.074(4) 0.112(15) 0.3 0
C2 C0+ 8 d 0.5104(16) 0.1604(18) 0.023(3) 0.087(9) 0.3 0
C3 C0+ 8 d 0.5269(18) 0.0908(17) 0.035(3) 0.070(9) 0.3 0
C4 C0+ 8 d 0.515(2) 0.196(2) -.044(4) 0.099(12) 0.3 0
C5 C0+ 8 d 0.4906(16) 0.1231(16) -.038(3) 0.078(8) 0.3 0
C6 C0+ 8 d 0.5030(18) 0.0877(19) 0.040(3) 0.074(10) 0.3 0
C7 C0+ 4 c 0.394(5) 0.25 -.160(8) 0.17(3) 0.3 0
C8 C0+ 4 c 0.327(4) 0.25 -.179(6) 0.12(2) 0.3 0
C9 C0+ 8 d 0.299(2) 0.232(2) -.195(3) 0.041(11) 0.15 0
C10 C0+ 8 d 0.400(2) 0.225(2) -.109(4) 0.049(10) 0.15 0
C11 C0+ 8 d 0.357(2) 0.226(2) -.143(3) 0.049(10) 0.15 0
C12 C0+ 4 c 0.2833(19) 0.25 -.155(3) 0.056(9) 0.3 0
C13 C0+ 8 d 0.549(3) 0.275(2) -.200(4) 0.066(13) 0.15 0
C14 C0+ 8 d 0.552(3) 0.229(2) -.274(4) 0.047(12) 0.15 0
C15 C0+ 4 c 0.590(3) 0.25 -.348(4) 0.068(15) 0.3 0
C16 C0+ 8 d 0.5048(18) 0.238(2) -.229(3) 0.049(11) 0.15 0
C17 C0+ 8 d 0.572(3) 0.238(3) -.255(4) 0.059(16) 0.15 0
C18 C0+ 8 d 0.575(3) 0.236(3) -.367(4) 0.059(17) 0.15 0
loop_
_atom_site_aniso_label
_atom_site_aniso_type_symbol
_atom_site_aniso_U_11
_atom_site_aniso_U_22
_atom_site_aniso_U_33
_atom_site_aniso_U_12
_atom_site_aniso_U_13
_atom_site_aniso_U_23
Si1 Si4+ 0.0187(6) 0.0196(7) 0.0181(6) 0.0003(4) -.0017(5) -.0004(5)
Si2 Si4+ 0.0251(7) 0.0218(7) 0.0139(6) 0.0019(5) 0.0001(5) -.0009(5)
Si3 Si4+ 0.0222(7) 0.0193(7) 0.0148(6) 0.0006(4) -.0002(5) -.0008(4)
Si4 Si4+ 0.0219(6) 0.0183(6) 0.0130(6) -.0008(4) 0.0008(5) -.0009(4)
Si5 Si4+ 0.0199(6) 0.0189(6) 0.0157(6) 0.0000(4) 0.0015(4) -.0019(5)
Si6 Si4+ 0.0214(6) 0.0222(7) 0.0163(6) 0.0010(4) 0.0021(5) -.0010(5)
Si7 Si4+ 0.0199(6) 0.0160(6) 0.0177(6) 0.0015(4) 0.0009(5) 0.0000(4)
Si8 Si4+ 0.0231(7) 0.0194(7) 0.0139(6) 0.0002(4) 0.0011(5) -.0004(4)
Si9 Si4+ 0.0294(7) 0.0189(6) 0.0213(7) 0.0018(5) 0.0054(5) 0.0037(5)
Si10 Si4+ 0.0240(7) 0.0181(6) 0.0219(7) 0.0000(5) -.0009(5) 0.0037(5)
Si11 Si4+ 0.0196(6) 0.0181(7) 0.0177(6) 0.0002(4) -.0002(5) 0.0005(4)
Si12 Si4+ 0.0223(6) 0.0161(6) 0.0177(6) -.0009(4) 0.0019(5) -.0005(4)
O1 O2- 0.029(2) 0.074(3) 0.034(2) -.0089(19) 0.0122(17) -.009(2)
O2 O2- 0.046(2) 0.042(2) 0.0173(17) -.0046(15) 0.0038(15) -.0065(15)
O3 O2- 0.020(2) 0.094(4) 0.062(3) 0.004(2) -.0015(19) -.009(3)
O4 O2- 0.060(3) 0.039(2) 0.0207(18) -.0004(17) -.0146(17) -.0034(16)
O5 O2- 0.0266(18) 0.051(2) 0.0269(19) 0.0010(16) 0.0058(16) 0.0119(17)
O6 O2- 0.031(2) 0.065(3) 0.040(2) 0.0082(18) -.0146(18) 0.002(2)
O7 O2- 0.031(2) 0.068(3) 0.037(2) 0.009(2) 0.0112(18) -.004(2)
O8 O2- 0.043(2) 0.061(3) 0.0202(18) -.005(2) 0.0040(16) 0.0113(19)
O9 O2- 0.0253(19) 0.039(2) 0.070(3) -.0026(16) -.0015(18) 0.009(2)
O10 O2- 0.063(3) 0.066(3) 0.034(2) -.009(2) -.018(2) 0.021(2)
O11 O2- 0.034(2) 0.051(2) 0.036(2) 0.0035(19) 0.0093(18) -.0158(19)
O12 O2- 0.036(2) 0.085(3) 0.038(2) -.012(2) -.0159(18) -.005(2)
O13 O2- 0.137(6) 0.019(2) 0.066(3) 0.005(2) -.015(3) 0.000(2)
O14 O2- 0.058(3) 0.022(2) 0.068(3) -.0013(16) 0.001(2) -.0018(19)
O15 O2- 0.049(2) 0.0224(19) 0.050(2) -.0001(15) -.013(2) 0.0081(16)
O16 O2- 0.070(3) 0.030(2) 0.035(2) -.0061(18) -.0108(19) -.0111(17)
O17 O2- 0.064(3) 0.029(2) 0.030(2) 0.0083(16) -.0083(19) 0.0076(15)
O18 O2- 0.040(2) 0.0247(19) 0.0300(19) -.0003(13) 0.0083(16) 0.0028(14)
O19 O2- 0.063(3) 0.029(2) 0.036(2) 0.0074(16) 0.0061(18) -.0144(17)
O20 O2- 0.061(3) 0.027(2) 0.0262(19) -.0088(16) -.0020(18) 0.0073(15)
O21 O2- 0.0182(19) 0.052(2) 0.033(2) 0.0057(15) 0.0038(14) -.0009(16)
O22 O2- 0.0226(19) 0.057(3) 0.039(2) -.0100(18) 0.0005(16) 0.0014(19)
O23 O2- 0.065(4) 0.020(3) 0.041(3) 0 -.010(3) 0
O24 O2- 0.060(4) 0.022(3) 0.041(3) 0 0.022(3) 0
O25 O2- 0.051(3) 0.017(2) 0.031(3) 0 -.003(2) 0
O26 O2- 0.040(3) 0.019(2) 0.024(2) 0 0.005(2) 0
#End of TTdata_411155-ICSD