
#(C) 2019 by FIZ Karlsruhe - Leibniz Institute for Information Infrastructure.  All rights reserved.
data_411346-ICSD
_database_code_ICSD 411346
_audit_creation_date 2002-04-01
_audit_update_record 2005-10-01
_chemical_name_systematic 'Sodium triantimony dioxide bis(phosphate(V))'
_chemical_formula_structural 'Na Sb3 O2 (P O4)2'
_chemical_formula_sum 'Na1 O10 P2 Sb3'
_exptl_crystal_density_diffrn 4.17
_publ_section_title

;
A novel framework antimony (III) phosphate: Synthesis and structure of Na Sb3
O2 (P O4)2
;
loop_
_citation_id
_citation_journal_full
_citation_year
_citation_journal_volume
_citation_page_first
_citation_page_last
_citation_journal_id_ASTM
primary 'Journal of Solid State Chemistry' 2000 151 21 24 JSSCBI
loop_
_publ_author_name
'Adair, B.A.'
'Diaz de Delgado, G.'
'Delgado, J.M.'
'Cheetham, A.K.'
_cell_length_a 13.944(3)
_cell_length_b 6.6822(13)
_cell_length_c 20.8860(40)
_cell_angle_alpha 90.
_cell_angle_beta 90.
_cell_angle_gamma 90.
_cell_volume 1946.09
_cell_formula_units_Z 8
_symmetry_space_group_name_H-M 'P c a 21'
_symmetry_Int_Tables_number 29
_refine_ls_R_factor_all 0.0464
loop_
_symmetry_equiv_pos_site_id
_symmetry_equiv_pos_as_xyz
1 'x+1/2, -y, z'
2 '-x+1/2, y, z+1/2'
3 '-x, -y, z+1/2'
4 'x, y, z'
loop_
_atom_type_symbol
_atom_type_oxidation_number
Sb3+ 3
P5+ 5
O2- -2
Na1+ 1
loop_
_atom_site_label
_atom_site_type_symbol
_atom_site_symmetry_multiplicity
_atom_site_Wyckoff_symbol
_atom_site_fract_x
_atom_site_fract_y
_atom_site_fract_z
_atom_site_B_iso_or_equiv
_atom_site_occupancy
_atom_site_attached_hydrogens
Sb1 Sb3+ 4 a 0.36050(9) 0.53593(18) 0.20949(6) . 1. 0
Sb2 Sb3+ 4 a 0.23140(8) 0.29306(17) 0.50455(6) . 1. 0
Sb3 Sb3+ 4 a 0.01210(8) 0.64130(17) 0.08508(7) . 1. 0
Sb4 Sb3+ 4 a 0.51067(8) 0.78526(17) 0.42401(7) . 1. 0
Sb5 Sb3+ 4 a 0.25813(9) 1.16103(17) 0.34376(7) . 1. 0
Sb6 Sb3+ 4 a 0.10951(9) 0.99174(16) 0.21641(7) . 1. 0
P1 P5+ 4 a 0.2796(3) 0.8087(7) 0.4657(2) . 1. 0
P2 P5+ 4 a -.1058(3) 0.9650(7) 0.1906(3) . 1. 0
P3 P5+ 4 a 0.1415(4) 0.4843(7) 0.2351(3) . 1. 0
P4 P5+ 4 a 0.4636(3) 0.3028(7) 0.4627(2) . 1. 0
O1 O2- 4 a 0.5668(8) 0.7371(16) 0.5128(7) . 1. 0
O2 O2- 4 a -.0967(8) 0.4995(17) 0.1217(8) . 1. 0
O3 O2- 4 a 0.2737(10) 0.8748(18) 0.3951(7) . 1. 0
O4 O2- 4 a -.1749(9) 0.7989(16) 0.2101(7) . 1. 0
O5 O2- 4 a 0.1491(8) 1.011(2) 0.3068(7) . 1. 0
O6 O2- 4 a 0.1748(8) 1.2465(19) 0.4188(7) . 1. 0
O7 O2- 4 a 0.5034(10) 0.465(2) 0.4174(8) . 1. 0
O8 O2- 4 a 0.2222(9) 0.533(2) 0.1842(9) . 1. 0
O9 O2- 4 a 0.0783(9) 0.6636(16) 0.2426(7) . 1. 0
O10 O2- 4 a -.054(1) 0.9224(17) 0.1285(7) . 1. 0
O11 O2- 4 a 0.2181(8) 0.623(2) 0.4743(8) . 1. 0
O12 O2- 4 a 0.3571(8) 0.2645(19) 0.4481(6) . 1. 0
O13 O2- 4 a 0.0809(9) 0.3131(16) 0.2127(8) . 1. 0
O14 O2- 4 a 0.3866(8) 0.7646(19) 0.4817(7) . 1. 0
O15 O2- 4 a -.1650(9) 1.1537(16) 0.1821(7) . 1. 0
O16 O2- 4 a 0.2446(10) 0.9737(17) 0.5130(9) . 1. 0
O17 O2- 4 a 0.5228(9) 0.116(2) 0.4527(8) . 1. 0
O18 O2- 4 a 0.4726(9) 0.371(2) 0.5333(6) . 1. 0
O19 O2- 4 a 0.1899(9) 0.4343(18) 0.3000(7) . 1. 0
O20 O2- 4 a -.0290(9) 1.000(2) 0.2430(8) . 1. 0
Na1 Na1+ 4 a 0.1281(6) 0.6990(12) 0.3652(4) . 1. 0
Na2 Na1+ 4 a 0.3850(6) 0.8121(12) 0.0632(4) . 1. 0
loop_
_atom_site_aniso_label
_atom_site_aniso_type_symbol
_atom_site_aniso_U_11
_atom_site_aniso_U_22
_atom_site_aniso_U_33
_atom_site_aniso_U_12
_atom_site_aniso_U_13
_atom_site_aniso_U_23
Sb1 Sb3+ 0.0335(6) 0.0300(6) 0.0268(8) 0.0003(5) 0.0010(6) 0.0009(6)
Sb2 Sb3+ 0.0344(7) 0.0268(6) 0.0273(8) 0.0002(5) -.0008(5) -.0005(5)
Sb3 Sb3+ 0.0325(6) 0.0289(6) 0.0256(7) 0.0005(4) -.0011(5) -.0003(5)
Sb4 Sb3+ 0.0344(6) 0.0263(7) 0.0277(8) 0.0005(4) -.0016(5) 0.0004(6)
Sb5 Sb3+ 0.0329(6) 0.0283(6) 0.0273(7) -.0008(5) 0.0016(5) -.0001(6)
Sb6 Sb3+ 0.0341(7) 0.0276(6) 0.0272(8) 0.0002(5) -.0013(6) -.0005(5)
P1 P5+ 0.032(2) 0.026(2) 0.025(3) 0.0007(16) 0.004(2) 0.0030(18)
P2 P5+ 0.033(2) 0.027(2) 0.030(3) 0.0044(18) 0.002(2) -.003(2)
P3 P5+ 0.036(3) 0.028(2) 0.023(3) -.0007(18) 0.001(2) 0.0027(19)
P4 P5+ 0.032(2) 0.025(3) 0.028(3) -.0010(17) 0.001(2) -.0002(18)
O1 O2- 0.030(6) 0.024(5) 0.027(7) 0.000(4) -.005(5) 0.005(5)
O2 O2- 0.037(7) 0.027(6) 0.028(9) 0.001(5) 0.004(7) 0.001(5)
O3 O2- 0.049(8) 0.035(7) 0.029(8) 0.001(6) -.009(6) 0.005(6)
O4 O2- 0.043(7) 0.028(6) 0.028(8) 0.008(5) 0.004(6) -.002(6)
O5 O2- 0.028(6) 0.042(7) 0.026(9) 0.002(5) -.010(7) 0.004(6)
O6 O2- 0.041(6) 0.031(6) 0.026(8) -.001(5) -.003(6) 0.002(5)
O7 O2- 0.042(7) 0.039(7) 0.025(7) 0.002(6) 0.007(6) 0.013(7)
O8 O2- 0.036(7) 0.032(7) 0.055(12) 0.000(5) -.002(7) 0.004(7)
O9 O2- 0.040(7) 0.025(6) 0.039(9) 0.000(5) 0.008(6) 0.002(5)
O10 O2- 0.059(8) 0.024(6) 0.036(9) -.003(6) 0.011(7) -.007(6)
O11 O2- 0.031(7) 0.041(8) 0.054(10) 0.003(5) -.004(6) 0.031(7)
O12 O2- 0.040(7) 0.026(6) 0.020(8) 0.001(5) 0.007(5) 0.009(5)
O13 O2- 0.028(6) 0.030(6) 0.049(10) -.002(5) -.004(6) 0.002(6)
O14 O2- 0.020(5) 0.034(7) 0.043(9) -.002(5) -.008(6) 0.010(6)
O15 O2- 0.040(7) 0.019(6) 0.040(9) -.004(5) -.007(6) -.007(5)
O16 O2- 0.047(7) 0.027(6) 0.05(1) 0.004(6) -.012(7) 0.003(7)
O17 O2- 0.043(8) 0.051(9) 0.044(10) 0.005(6) -.008(7) -.025(7)
O18 O2- 0.035(7) 0.051(8) 0.011(7) -.005(6) -.005(5) 0.002(5)
O19 O2- 0.046(7) 0.029(7) 0.033(8) 0.006(5) -.010(6) -.009(6)
O20 O2- 0.027(6) 0.052(8) 0.019(8) 0.000(5) -.002(6) -.003(5)
Na1 Na1+ 0.050(5) 0.038(4) 0.036(5) -.007(3) 0.004(4) -.002(3)
Na2 Na1+ 0.054(4) 0.036(4) 0.036(5) 0.009(3) 0.002(4) -.002(3)
#End of TTdata_411346-ICSD