
#(C) 2019 by FIZ Karlsruhe - Leibniz Institute for Information Infrastructure.  All rights reserved.
data_411347-ICSD
_database_code_ICSD 411347
_audit_creation_date 2002-04-01
_chemical_name_systematic 'Sodium dipraseodymium trifluoride bis(sulfate(VI))'
_chemical_formula_structural 'Na Pr2 F3 (S O4)2'
_chemical_formula_sum 'F3 Na1 O8 Pr2 S2'
_chemical_name_structure_type LiLa2F3(SO4)2
_exptl_crystal_density_diffrn 4.58
_publ_section_title 'Synthese und Kristallstruktur von Na Pr2 F3 (S O4)2'
loop_
_citation_id
_citation_journal_full
_citation_year
_citation_journal_volume
_citation_page_first
_citation_page_last
_citation_journal_id_ASTM
primary 'Zeitschrift fuer Anorganische und Allgemeine Chemie (1950) (DE)' 2000
626 1723 1724 ZAACAB
loop_
_publ_author_name
'Wickleder, M.S.'
_cell_length_a 8.2231(12)
_cell_length_b 6.9212(7)
_cell_length_c 14.199(2)
_cell_angle_alpha 90.
_cell_angle_beta 95.879(15)
_cell_angle_gamma 90.
_cell_volume 803.87
_cell_formula_units_Z 4
_symmetry_space_group_name_H-M 'I 1 2/a 1'
_symmetry_Int_Tables_number 15
_refine_ls_R_factor_all 0.0218
loop_
_symmetry_equiv_pos_site_id
_symmetry_equiv_pos_as_xyz
1 'x+1/2, -y, z'
2 '-x, -y, -z'
3 '-x+1/2, y, -z'
4 'x, y, z'
5 'x, -y+1/2, z+1/2'
6 '-x+1/2, -y+1/2, -z+1/2'
7 '-x, y+1/2, -z+1/2'
8 'x+1/2, y+1/2, z+1/2'
loop_
_atom_type_symbol
_atom_type_oxidation_number
Pr3+ 3
S6+ 6
O2- -2
F1- -1
O2- -2
F1- -1
Na1+ 1
loop_
_atom_site_label
_atom_site_type_symbol
_atom_site_symmetry_multiplicity
_atom_site_Wyckoff_symbol
_atom_site_fract_x
_atom_site_fract_y
_atom_site_fract_z
_atom_site_B_iso_or_equiv
_atom_site_occupancy
_atom_site_attached_hydrogens
Pr1 Pr3+ 8 f 0.15761(2) 0.09175(3) 0.119570(13) . 1. 0
S1 S6+ 8 f 0.01788(12) -.41280(12) 0.17911(7) . 1. 0
O1 O2- 8 f 0.1052(3) -.2615(4) 0.1328(2) . 1. 0
O2 O2- 8 f 0.0084(4) -.5869(4) 0.1199(2) . 1. 0
F1 F1- 8 f 0.1151(3) -.0587(4) -.0450(2) . 1. 0
O3 O2- 8 f -.1501(3) -.3492(4) 0.1943(2) . 1. 0
O4 O2- 8 f 0.0970(4) -.4530(5) 0.2754(2) . 1. 0
F2 F1- 4 e 0.25 0.2847(5) 0 . 1. 0
Na1 Na1+ 4 e 0.25 -.3856(3) 0 . 1. 0
loop_
_atom_site_aniso_label
_atom_site_aniso_type_symbol
_atom_site_aniso_U_11
_atom_site_aniso_U_22
_atom_site_aniso_U_33
_atom_site_aniso_U_12
_atom_site_aniso_U_13
_atom_site_aniso_U_23
Pr1 Pr3+ 0.0056(2) 0.0058(2) 0.0065(2) -.00045(6) 0.00167(8) -.00001(6)
S1 S6+ 0.0065(4) 0.0057(5) 0.0066(4) 0.0005(3) 0.0020(3) 0.0000(3)
O1 O2- 0.0136(14) 0.009(2) 0.0171(13) 0.0009(11) 0.0088(11) 0.0022(10)
O2 O2- 0.0129(14) 0.010(2) 0.0132(14) 0.0025(10) 0.0016(11) -.0050(9)
F1 F1- 0.0102(11) 0.0182(14) 0.0114(11) -.0034(9) 0.0015(9) -.0003(9)
O3 O2- 0.0066(12) 0.0116(15) 0.0131(13) 0.0019(10) 0.0027(10) 0.0001(11)
O4 O2- 0.0135(13) 0.015(2) 0.0100(13) 0.0034(11) 0.0001(10) 0.0029(11)
F2 F1- 0.020(2) 0.010(2) 0.014(2) 0 0.0083(13) 0
Na1 Na1+ 0.0112(11) 0.0082(12) 0.0078(11) 0 0.0035(8) 0
#End of TTdata_411347-ICSD