
#(C) 2019 by FIZ Karlsruhe - Leibniz Institute for Information Infrastructure.  All rights reserved.
data_411608-ICSD
_database_code_ICSD 411608
_audit_creation_date 2002-10-01
_audit_update_record 2008-02-01
_chemical_name_systematic 'Trisodium trithioborate'
_chemical_formula_structural 'Na3 (B S3)'
_chemical_formula_sum 'B1 Na3 S3'
_exptl_crystal_density_diffrn 2.
_publ_section_title

;
Syntheses and crystal structures of the novel thioborates Na3 B S3, K3 B S3,
and Rb3 B S3
;
loop_
_citation_id
_citation_journal_full
_citation_year
_citation_journal_volume
_citation_page_first
_citation_page_last
_citation_journal_id_ASTM
primary 'Zeitschrift fuer Anorganische und Allgemeine Chemie (1950) (DE)' 2001
627 896 902 ZAACAB
loop_
_publ_author_name
'Kuchinke, J.'
'Jansen, C.'
'Lindemann, A.'
'Krebs, B.'
_cell_length_a 11.853(14)
_cell_length_b 6.664(10)
_cell_length_c 8.406(10)
_cell_angle_alpha 90.
_cell_angle_beta 118.18(2)
_cell_angle_gamma 90.
_cell_volume 585.27
_cell_formula_units_Z 4
_symmetry_space_group_name_H-M 'C 1 2/c 1'
_symmetry_Int_Tables_number 15
_refine_ls_R_factor_all 0.02
loop_
_symmetry_equiv_pos_site_id
_symmetry_equiv_pos_as_xyz
1 'x, -y, z+1/2'
2 '-x, -y, -z'
3 '-x, y, -z+1/2'
4 'x, y, z'
5 'x+1/2, -y+1/2, z+1/2'
6 '-x+1/2, -y+1/2, -z'
7 '-x+1/2, y+1/2, -z+1/2'
8 'x+1/2, y+1/2, z'
loop_
_atom_type_symbol
_atom_type_oxidation_number
Na1+ 1
S2- -2
B3+ 3
loop_
_atom_site_label
_atom_site_type_symbol
_atom_site_symmetry_multiplicity
_atom_site_Wyckoff_symbol
_atom_site_fract_x
_atom_site_fract_y
_atom_site_fract_z
_atom_site_B_iso_or_equiv
_atom_site_occupancy
_atom_site_attached_hydrogens
Na1 Na1+ 8 f 0.40274(6) 0.21349(9) 0.49570(8) . 1. 0
Na2 Na1+ 4 c 0.25 0.25 0 . 1. 0
S1 S2- 4 e 0.5 0.14347(6) 0.25 . 1. 0
S2 S2- 8 f 0.13550(3) 0.05790(5) 0.25321(4) . 1. 0
B1 B3+ 4 e 0.5 0.4217(3) 0.25 . 1. 0
loop_
_atom_site_aniso_label
_atom_site_aniso_type_symbol
_atom_site_aniso_U_11
_atom_site_aniso_U_22
_atom_site_aniso_U_33
_atom_site_aniso_U_12
_atom_site_aniso_U_13
_atom_site_aniso_U_23
Na1 Na1+ 0.0353(3) 0.0285(3) 0.0297(3) -.0024(3) 0.0202(3) -.0038(2)
Na2 Na1+ 0.0250(5) 0.0372(5) 0.0546(6) 0.0077(4) -.0117(4) -.0240(5)
S1 S2- 0.0188(2) 0.0146(2) 0.0186(2) 0 0.00793(18) 0
S2 S2- 0.0172(2) 0.01997(19) 0.02008(19) -.00271(11) 0.00887(15) 0.00026(12)
B1 B3+ 0.0157(10) 0.0169(9) 0.0134(9) 0 0.0046(8) 0
#End of TTdata_411608-ICSD