
#(C) 2019 by FIZ Karlsruhe - Leibniz Institute for Information Infrastructure.  All rights reserved.
data_411765-ICSD
_database_code_ICSD 411765
_audit_creation_date 2003-04-01
_chemical_name_systematic
'Bis(diamminesodium) diamminesodium trithioantimonate - ammonia (1/2)'
_chemical_formula_structural '((Na (N H3)3)2 (Na (N H3)2) (Sb S3)) (N H3)2'
_chemical_formula_sum 'H30 N10 Na3 S3 Sb1'
_exptl_crystal_density_diffrn 1.52
_cell_measurement_temperature 123.
_publ_section_title

;
Low-temperature synthesis of diamminesodium(1+) triamminesodium(3-)
trithioantimonate(3-) ammoniate (1:2:1:2) ((Na (N H3)3)2 (Na (N H3)2)) Sb S3 *
2(N H3), a solvated neutral sodium trithioantimonate(3-) (3:1) Na3 Sb S3 ion
complex
;
loop_
_citation_id
_citation_journal_full
_citation_year
_citation_journal_volume
_citation_page_first
_citation_page_last
_citation_journal_id_ASTM
primary 'Helvetica Chimica Acta' 2001 84 2368 2372 HCACAV
loop_
_publ_author_name
'Korber, N.'
'Richter, F.'
_cell_length_a 9.828(2)
_cell_length_b 6.0702(4)
_cell_length_c 33.4377(6)
_cell_angle_alpha 90.
_cell_angle_beta 91.362(7)
_cell_angle_gamma 90.
_cell_volume 1994.26
_cell_formula_units_Z 4
_symmetry_space_group_name_H-M 'P 1 21/c 1'
_symmetry_Int_Tables_number 14
_refine_ls_R_factor_all 0.0251
loop_
_symmetry_equiv_pos_site_id
_symmetry_equiv_pos_as_xyz
1 'x, -y+1/2, z+1/2'
2 '-x, -y, -z'
3 '-x, y+1/2, -z+1/2'
4 'x, y, z'
loop_
_atom_type_symbol
_atom_type_oxidation_number
Sb3+ 3
S2- -2
Na1+ 1
N3- -3
H1+ 1
N3- -3
H1+ 1
N3- -3
H1+ 1
Na1+ 1
N3- -3
H1+ 1
N3- -3
H1+ 1
N3- -3
H1+ 1
Na1+ 1
N3- -3
H1+ 1
N3- -3
H1+ 1
N3- -3
H1+ 1
N3- -3
H1+ 1
loop_
_atom_site_label
_atom_site_type_symbol
_atom_site_symmetry_multiplicity
_atom_site_Wyckoff_symbol
_atom_site_fract_x
_atom_site_fract_y
_atom_site_fract_z
_atom_site_B_iso_or_equiv
_atom_site_occupancy
_atom_site_attached_hydrogens
Sb1 Sb3+ 4 e 0.312533(14) 0.46528(2) 0.101889(3) 0.01247(8) 1. 0
S1 S2- 4 e 0.17285(6) 0.28993(9) 0.150538(14) 0.01589(13) 1. 0
S2 S2- 4 e 0.52987(6) 0.29397(9) 0.114033(15) 0.01588(13) 1. 0
S3 S2- 4 e 0.24045(6) 0.27128(9) 0.042490(14) 0.01590(13) 1. 0
Na1 Na1+ 4 e 0.40993(10) 0.04796(14) 0.17756(3) 0.0202(2) 1. 0
N1 N3- 4 e 0.4739(3) 0.3306(4) 0.22605(7) 0.0286(5) 1. 0
H1 H1+ 4 e 0.431(5) 0.358(8) 0.2469(13) 0.062(12) 1. 0
H2 H1+ 4 e 0.555(6) 0.347(10) 0.2318(15) 0.093(19) 1. 0
H3 H1+ 4 e 0.452(6) 0.469(10) 0.2126(18) 0.11(2) 1. 0
N2 N3- 4 e 0.6052(2) -.2035(4) 0.16807(7) 0.0231(5) 1. 0
H4 H1+ 4 e 0.589(4) -.331(7) 0.1584(10) 0.041(9) 1. 0
H5 H1+ 4 e 0.678(4) -.213(7) 0.1852(11) 0.052(11) 1. 0
H6 H1+ 4 e 0.636(4) -.113(7) 0.1497(11) 0.046(9) 1. 0
N3 N3- 4 e 0.2389(2) -.2050(4) 0.20554(7) 0.0232(5) 1. 0
H7 H1+ 4 e 0.226(3) -.334(6) 0.1937(10) 0.035(8) 1. 0
H8 H1+ 4 e 0.173(4) -.118(7) 0.1927(10) 0.044(9) 1. 0
H9 H1+ 4 e 0.216(4) -.204(6) 0.2296(12) 0.046(10) 1. 0
Na2 Na1+ 4 e 0.06023(11) -.00211(17) 0.08809(3) 0.0256(2) 1. 0
N4 N3- 4 e -.0437(3) -.2456(4) 0.13711(7) 0.0246(5) 1. 0
H10 H1+ 4 e -.125(5) -.302(8) 0.1299(12) 0.062(13) 1. 0
H11 H1+ 4 e 0.008(3) -.358(6) 0.1430(8) 0.028(8) 1. 0
H12 H1+ 4 e -.058(4) -.184(7) 0.1574(12) 0.056(12) 1. 0
N5 N3- 4 e 0.0431(3) -.2377(4) 0.02843(7) 0.0262(5) 1. 0
H13 H1+ 4 e 0.086(4) -.377(7) 0.0319(10) 0.041(9) 1. 0
H14 H1+ 4 e -.027(4) -.259(6) 0.0146(10) 0.036(9) 1. 0
H15 H1+ 4 e 0.098(5) -.152(9) 0.0141(12) 0.070(13) 1. 0
N6 N3- 4 e -.1257(3) 0.2680(4) 0.08168(8) 0.0275(5) 1. 0
H16 H1+ 4 e -.216(4) 0.274(6) 0.0919(10) 0.038(9) 1. 0
H17 H1+ 4 e -.120(5) 0.354(9) 0.0620(14) 0.072(14) 1. 0
H18 H1+ 4 e -.079(5) 0.323(9) 0.0987(14) 0.075(15) 1. 0
Na3 Na1+ 4 e 0.45545(11) -.02399(15) 0.05311(3) 0.0242(2) 1. 0
N7 N3- 4 e 0.6673(3) -.2220(4) 0.06065(7) 0.0224(5) 1. 0
H19 H1+ 4 e 0.737(4) -.155(6) 0.0703(9) 0.033(9) 1. 0
H20 H1+ 4 e 0.651(4) -.333(7) 0.0722(10) 0.037(9) 1. 0
H21 H1+ 4 e 0.691(4) -.263(6) 0.0373(11) 0.046(10) 1. 0
N8 N3- 4 e 0.3902(3) -.2632(4) -.00435(7) 0.0318(6) 1. 0
H22 H1+ 4 e 0.353(3) -.370(6) 0.0063(9) 0.030(8) 1. 0
H23 H1+ 4 e 0.458(5) -.333(9) -.0163(14) 0.081(15) 1. 0
H24 H1+ 4 e 0.331(5) -.212(8) -.0210(14) 0.072(15) 1. 0
N9 N3- 4 e 0.1339(3) 0.2728(4) 0.26103(7) 0.0282(5) 1. 0
H25 H1+ 4 e 0.149(4) 0.136(7) 0.269(1) 0.041(9) 1. 0
H26 H1+ 4 e 0.158(4) 0.284(6) 0.2381(11) 0.041(9) 1. 0
H27 H1+ 4 e 0.041(6) 0.283(9) 0.2599(13) 0.087(17) 1. 0
N10 N3- 4 e -.1778(3) 0.2703(4) 0.19616(7) 0.0286(5) 1. 0
H28 H1+ 4 e -.099(5) 0.289(7) 0.1846(12) 0.060(12) 1. 0
H29 H1+ 4 e -.177(3) 0.121(7) 0.2047(9) 0.040(9) 1. 0
H30 H1+ 4 e -.237(4) 0.290(6) 0.1795(11) 0.042(10) 1. 0
loop_
_atom_site_aniso_label
_atom_site_aniso_type_symbol
_atom_site_aniso_U_11
_atom_site_aniso_U_22
_atom_site_aniso_U_33
_atom_site_aniso_U_12
_atom_site_aniso_U_13
_atom_site_aniso_U_23
Sb1 Sb3+ 0.01325(13) 0.01094(12) 0.01325(10) 0.00080(5) 0.00110(6) 0.00023(4)
S1 S2- 0.0133(3) 0.0208(3) 0.0137(2) 0.0017(2) 0.0030(2) 0.00165(19)
S2 S2- 0.0106(3) 0.0198(3) 0.0172(2) 0.0000(2) 0.00113(19) -0.00060(19)
S3 S2- 0.0166(3) 0.0187(3) 0.0123(2) 0.0019(2) -0.00096(19) -0.00009(19)
Na1 Na1+ 0.0191(6) 0.0220(5) 0.0196(4) 0.0024(4) 0.0005(3) 0.0029(3)
N1 N3- 0.0298(16) 0.0283(12) 0.0275(12) -0.0007(10) -0.0032(10) -0.0009(9)
N2 N3- 0.0197(14) 0.0231(12) 0.0265(11) 0.0023(9) -0.0005(9) 0.0011(9)
N3 N3- 0.0236(14) 0.0242(12) 0.0217(11) -0.0016(9) 0.0007(9) 0.0007(9)
Na2 Na1+ 0.0194(6) 0.0233(5) 0.0340(5) -0.0032(4) -0.0002(4) 0.0009(4)
N4 N3- 0.0221(15) 0.0238(11) 0.0279(11) 0.0044(10) 0.0007(9) -0.0030(9)
N5 N3- 0.0220(15) 0.0227(12) 0.0337(12) 0.0025(10) -0.0068(10) -0.0005(9)
N6 N3- 0.0163(15) 0.0314(13) 0.0347(12) 0.0019(9) -0.0019(10) -0.0032(10)
Na3 Na1+ 0.0215(7) 0.0203(5) 0.0307(5) 0.0037(4) -0.0016(4) -0.0075(4)
N7 N3- 0.0246(15) 0.0225(12) 0.020(1) 0.0039(10) 0.0016(9) 0.0010(9)
N8 N3- 0.0413(18) 0.0270(12) 0.0276(11) -0.0137(12) 0.0111(11) -0.0037(10)
N9 N3- 0.0324(17) 0.0299(13) 0.0223(11) -0.0029(10) 0.0022(9) -0.0046(9)
N10 N3- 0.0329(17) 0.0275(13) 0.0254(11) -0.0016(10) 0.0032(11) -0.0028(9)
#End of TTdata_411765-ICSD