
#(C) 2019 by FIZ Karlsruhe - Leibniz Institute for Information Infrastructure.  All rights reserved.
data_411865-ICSD
_database_code_ICSD 411865
_audit_creation_date 2002-10-01
_chemical_name_systematic 'Pentasodium cuprate(I) dihydroxide'
_chemical_formula_structural 'Na5 (Cu O2) (O H)2'
_chemical_formula_sum 'H2 Cu1 Na5 O4'
_exptl_crystal_density_diffrn 2.5
_publ_section_title
'Synthesis, crystal structure, and reactivity of Na5 (Cu O2) (O H)2'
loop_
_citation_id
_citation_journal_full
_citation_year
_citation_journal_volume
_citation_page_first
_citation_page_last
_citation_journal_id_ASTM
primary 'Zeitschrift fuer Anorganische und Allgemeine Chemie (1950) (DE)' 2001
627 2571 2575 ZAACAB
loop_
_publ_author_name
'Amann, P.'
'Moeller, A.'
_cell_length_a 6.0742(12)
_cell_length_b 8.9117(13)
_cell_length_c 12.0100(17)
_cell_angle_alpha 90.
_cell_angle_beta 90.
_cell_angle_gamma 90.
_cell_volume 650.12
_cell_formula_units_Z 4
_symmetry_space_group_name_H-M 'P n m a'
_symmetry_Int_Tables_number 62
_refine_ls_R_factor_all 0.0298
loop_
_symmetry_equiv_pos_site_id
_symmetry_equiv_pos_as_xyz
1 'x+1/2, y, -z+1/2'
2 'x, -y+1/2, z'
3 '-x+1/2, y+1/2, z+1/2'
4 '-x, -y, -z'
5 '-x+1/2, -y, z+1/2'
6 '-x, y+1/2, -z'
7 'x+1/2, -y+1/2, -z+1/2'
8 'x, y, z'
loop_
_atom_type_symbol
_atom_type_oxidation_number
Cu1+ 1
Na1+ 1
O2- -2
H1+ 1
loop_
_atom_site_label
_atom_site_type_symbol
_atom_site_symmetry_multiplicity
_atom_site_Wyckoff_symbol
_atom_site_fract_x
_atom_site_fract_y
_atom_site_fract_z
_atom_site_B_iso_or_equiv
_atom_site_occupancy
_atom_site_attached_hydrogens
Cu1 Cu1+ 4 c 0.00356(5) 0.75 0.52402(3) . 1. 0
Na1 Na1+ 4 c -.08619(19) 0.75 0.27065(10) . 1. 0
Na2 Na1+ 8 d -.24203(15) 0.49435(9) 0.63883(7) . 1. 0
Na3 Na1+ 4 c 0.0517(2) 0.75 0.04064(10) . 1. 0
Na4 Na1+ 4 c -.5637(2) 0.75 0.70692(11) . 1. 0
O1 O2- 4 c -.2259(3) 0.75 0.62110(14) . 1. 0
O2 O2- 4 c 0.1936(3) 0.75 0.41037(17) . 1. 0
O3 O2- 8 d -.1309(3) 0.4536(2) 0.82832(13) . 1. 0
H1 H1+ 8 d -.214(5) 0.490(3) 0.8712(19) 0.006(6) 1. 0
loop_
_atom_site_aniso_label
_atom_site_aniso_type_symbol
_atom_site_aniso_U_11
_atom_site_aniso_U_22
_atom_site_aniso_U_33
_atom_site_aniso_U_12
_atom_site_aniso_U_13
_atom_site_aniso_U_23
Cu1 Cu1+ 0.0100(2) 0.0116(2) 0.0119(2) 0 0.00109(12) 0
Na1 Na1+ 0.0149(6) 0.0226(8) 0.0176(6) 0 -.0013(5) 0
Na2 Na1+ 0.0236(5) 0.0093(5) 0.0224(4) 0.0004(3) 0.0003(3) 0.0014(3)
Na3 Na1+ 0.0137(5) 0.0294(8) 0.0138(5) 0 0.0027(4) 0
Na4 Na1+ 0.0210(6) 0.0483(11) 0.0209(6) 0 0.0098(5) 0
O1 O2- 0.0133(9) 0.0093(12) 0.0111(9) 0 0.0022(7) 0
O2 O2- 0.0123(9) 0.0120(11) 0.0158(9) 0 0.0040(8) 0
O3 O2- 0.0161(7) 0.0240(9) 0.0174(7) 0.0018(7) 0.0007(6) 0.0030(6)
#End of TTdata_411865-ICSD