
#(C) 2019 by FIZ Karlsruhe - Leibniz Institute for Information Infrastructure.  All rights reserved.
data_411905-ICSD
_database_code_ICSD 411905
_audit_creation_date 2013-08-01
_chemical_name_systematic 'Dibarium sodium oxide'
_chemical_formula_structural 'Ba2 Na O'
_chemical_formula_sum 'Ba2 Na1 O1'
_exptl_crystal_density_diffrn 2.97
_cell_measurement_temperature 293.
_publ_section_title 'Na Ba2 O: A fresh perspective in suboxide chemistry'
loop_
_citation_id
_citation_journal_full
_citation_year
_citation_journal_volume
_citation_page_first
_citation_page_last
_citation_journal_id_ASTM
primary 'Angewandte Chemie, International Edition' 2001 40 4220 4222 ACIEF5
loop_
_publ_author_name
'Vajenine, G.V.'
'Simon, A.'
_cell_length_a 6.5907(3)
_cell_length_b 15.3270(10)
_cell_length_c 6.9385(5)
_cell_angle_alpha 90.
_cell_angle_beta 90.
_cell_angle_gamma 90.
_cell_volume 700.9
_cell_formula_units_Z 4
_symmetry_space_group_name_H-M 'C m m a'
_symmetry_Int_Tables_number 67
_refine_ls_R_factor_all 0.0297
loop_
_symmetry_equiv_pos_site_id
_symmetry_equiv_pos_as_xyz
1 'x+1/2, y, -z'
2 'x+1/2, -y, z'
3 '-x, y, z'
4 '-x, -y, -z'
5 '-x+1/2, -y, z'
6 '-x+1/2, y, -z'
7 'x, -y, -z'
8 'x, y, z'
9 'x, y+1/2, -z'
10 'x, -y+1/2, z'
11 '-x+1/2, y+1/2, z'
12 '-x+1/2, -y+1/2, -z'
13 '-x, -y+1/2, z'
14 '-x, y+1/2, -z'
15 'x+1/2, -y+1/2, -z'
16 'x+1/2, y+1/2, z'
loop_
_atom_type_symbol
_atom_type_oxidation_number
Ba0+ 0
Na0+ 0
O0+ 0
loop_
_atom_site_label
_atom_site_type_symbol
_atom_site_symmetry_multiplicity
_atom_site_Wyckoff_symbol
_atom_site_fract_x
_atom_site_fract_y
_atom_site_fract_z
_atom_site_B_iso_or_equiv
_atom_site_occupancy
_atom_site_attached_hydrogens
Ba1 Ba0+ 8 m 0. 0.08701(2) 0.19869(5) 0.03497(15) 1 0
Na1 Na0+ 4 g 0. 0.25 0.6889(7) 0.0571(12) 1 0
O1 O0+ 4 a 0.25 0. 0. 0.0392(12) 1 0
loop_
_atom_site_aniso_label
_atom_site_aniso_type_symbol
_atom_site_aniso_U_11
_atom_site_aniso_U_22
_atom_site_aniso_U_33
_atom_site_aniso_U_12
_atom_site_aniso_U_13
_atom_site_aniso_U_23
Ba1 Ba0+ 0.0319(2) 0.0364(2) 0.0366(2) 0. 0. -0.00932(12)
Na1 Na0+ 0.052(3) 0.058(3) 0.062(3) 0. 0. 0.
O1 O0+ 0.029(3) 0.045(3) 0.043(3) 0. 0. 0.
#End of TTdata_411905-ICSD