
#(C) 2019 by FIZ Karlsruhe - Leibniz Institute for Information Infrastructure.  All rights reserved.
data_411950-ICSD
_database_code_ICSD 411950
_audit_creation_date 2002-10-01
_audit_update_record 2006-04-01
_chemical_name_systematic 'Trisodium dioxofluorobis(phosphato(V))divanadate(IV)'
_chemical_formula_structural 'Na3 (V2 O2 F (P O4)2)'
_chemical_formula_sum 'F1 Na3 O10 P2 V2'
_exptl_crystal_density_diffrn 3.17
_publ_section_title

;
Crystal structure of a new sodium vanadyl(IV) fluoride phosphate Na3 (V2 O2 F
(P O4)2)
;
loop_
_citation_id
_citation_journal_full
_citation_year
_citation_journal_volume
_citation_page_first
_citation_page_last
_citation_journal_id_ASTM
primary 'Solid State Sciences' 2002 4 495 501 SSSCFJ
loop_
_publ_author_name
'Massa, W.'
'Yakubovich, O.V.'
'Dimitrova, O.V.'
_cell_length_a 6.3811(6)
_cell_length_b 6.3811(6)
_cell_length_c 10.5862(14)
_cell_angle_alpha 90.
_cell_angle_beta 90.
_cell_angle_gamma 90.
_cell_volume 431.05
_cell_formula_units_Z 2
_symmetry_space_group_name_H-M 'I 4/m m m'
_symmetry_Int_Tables_number 139
_refine_ls_R_factor_all 0.0159
loop_
_symmetry_equiv_pos_site_id
_symmetry_equiv_pos_as_xyz
1 'y, x, -z'
2 '-y, -x, -z'
3 '-y, x, -z'
4 'y, -x, -z'
5 '-x, y, -z'
6 'x, -y, -z'
7 'x, y, -z'
8 '-x, -y, -z'
9 '-y, -x, z'
10 'y, x, z'
11 'y, -x, z'
12 '-y, x, z'
13 'x, -y, z'
14 '-x, y, z'
15 '-x, -y, z'
16 'x, y, z'
17 'y+1/2, x+1/2, -z+1/2'
18 '-y+1/2, -x+1/2, -z+1/2'
19 '-y+1/2, x+1/2, -z+1/2'
20 'y+1/2, -x+1/2, -z+1/2'
21 '-x+1/2, y+1/2, -z+1/2'
22 'x+1/2, -y+1/2, -z+1/2'
23 'x+1/2, y+1/2, -z+1/2'
24 '-x+1/2, -y+1/2, -z+1/2'
25 '-y+1/2, -x+1/2, z+1/2'
26 'y+1/2, x+1/2, z+1/2'
27 'y+1/2, -x+1/2, z+1/2'
28 '-y+1/2, x+1/2, z+1/2'
29 'x+1/2, -y+1/2, z+1/2'
30 '-x+1/2, y+1/2, z+1/2'
31 '-x+1/2, -y+1/2, z+1/2'
32 'x+1/2, y+1/2, z+1/2'
loop_
_atom_type_symbol
_atom_type_oxidation_number
V4+ 4
P5+ 5
F1- -1
O2- -2
Na1+ 1
loop_
_atom_site_label
_atom_site_type_symbol
_atom_site_symmetry_multiplicity
_atom_site_Wyckoff_symbol
_atom_site_fract_x
_atom_site_fract_y
_atom_site_fract_z
_atom_site_B_iso_or_equiv
_atom_site_occupancy
_atom_site_attached_hydrogens
V1 V4+ 4 e 0 0 0.19913(4) . 1. 0
P1 P5+ 4 d 0.5 0 0.25 . 1. 0
F1 F1- 2 a 0 0 0 . 1. 0
O1 O2- 16 n 0.30829(17) 0 0.16309(10) . 1. 0
O2 O2- 4 e 0 0 0.3527(2) . 1. 0
Na1 Na1+ 8 h -.2548(14) -.2548(14) 0 . 0.38 0
Na2 Na1+ 16 l -.3186(7) -.237(3) 0 . 0.19 0
loop_
_atom_site_aniso_label
_atom_site_aniso_type_symbol
_atom_site_aniso_U_11
_atom_site_aniso_U_22
_atom_site_aniso_U_33
_atom_site_aniso_U_12
_atom_site_aniso_U_13
_atom_site_aniso_U_23
V1 V4+ 0.0063(2) 0.0063(2) 0.0070(3) 0 0 0
P1 P5+ 0.0048(2) 0.0048(2) 0.0101(4) 0 0 0
F1 F1- 0.0119(7) 0.0119(7) 0.0063(10) 0 0 0
O1 O2- 0.0066(5) 0.0161(5) 0.0141(5) 0 -.0017(4) 0
O2 O2- 0.0206(7) 0.0206(7) 0.0118(10) 0 0 0
Na1 Na1+ 0.021(2) 0.021(2) 0.0153(6) -.008(5) 0 0
Na2 Na1+ 0.021(2) 0.021(2) 0.0153(6) -.008(5) 0 0
#End of TTdata_411950-ICSD