
#(C) 2019 by FIZ Karlsruhe - Leibniz Institute for Information Infrastructure.  All rights reserved.
data_412357-ICSD
_database_code_ICSD 412357
_audit_creation_date 2003-04-01
_audit_update_record 2014-08-01
_chemical_name_systematic 'Pentasodium cobaltate(II) hydroxide'
_chemical_formula_structural 'Na5 (Co O3) (O H)'
_chemical_formula_sum 'H1 Co1 Na5 O4'
_chemical_name_structure_type Na5CoO3OH
_exptl_crystal_density_diffrn 2.67
_publ_section_title

;
Ein Natrium-Oxocobaltat(II)-Hydroxid: Na5 (Co O3) O H = Na10 (Co O3) ((C O3)
(O H)2)
;
loop_
_citation_id
_citation_journal_full
_citation_year
_citation_journal_volume
_citation_page_first
_citation_page_last
_citation_journal_id_ASTM
primary 'Zeitschrift fuer Anorganische und Allgemeine Chemie (1950) (DE)' 2002
628 1756 1760 ZAACAB
loop_
_publ_author_name
'Amann, P.'
'Moeller, A.'
_cell_length_a 9.8848(12)
_cell_length_b 10.139(2)
_cell_length_c 11.8633(17)
_cell_angle_alpha 90.
_cell_angle_beta 90.
_cell_angle_gamma 90.
_cell_volume 1188.96
_cell_formula_units_Z 8
_symmetry_space_group_name_H-M 'P n m a'
_symmetry_Int_Tables_number 62
_refine_ls_R_factor_all 0.0404
loop_
_symmetry_equiv_pos_site_id
_symmetry_equiv_pos_as_xyz
1 'x+1/2, y, -z+1/2'
2 'x, -y+1/2, z'
3 '-x+1/2, y+1/2, z+1/2'
4 '-x, -y, -z'
5 '-x+1/2, -y, z+1/2'
6 '-x, y+1/2, -z'
7 'x+1/2, -y+1/2, -z+1/2'
8 'x, y, z'
loop_
_atom_type_symbol
_atom_type_oxidation_number
Co2+ 2
Na1+ 1
O2- -2
H1+ 1
loop_
_atom_site_label
_atom_site_type_symbol
_atom_site_symmetry_multiplicity
_atom_site_Wyckoff_symbol
_atom_site_fract_x
_atom_site_fract_y
_atom_site_fract_z
_atom_site_B_iso_or_equiv
_atom_site_occupancy
_atom_site_attached_hydrogens
Co1 Co2+ 4 c 0.51432(13) 0.25 0.29043(9) 0.0120(3) 1. 0
Co2 Co2+ 4 c 0.29380(13) 0.75 0.11368(9) 0.0107(3) 1. 0
Na1 Na1+ 8 d 0.5038(3) 0.5911(2) 0.28248(19) 0.0220(6) 1. 0
Na2 Na1+ 8 d 0.5723(2) 0.4336(2) 0.08762(18) 0.0155(6) 1. 0
Na3 Na1+ 4 c 0.5837(4) 0.75 0.0553(3) 0.0173(8) 1. 0
Na4 Na1+ 8 d 0.1315(3) 0.5618(2) -.01258(18) 0.0166(6) 1. 0
Na5 Na1+ 8 d 0.2839(3) 0.4209(2) 0.1808(2) 0.0202(6) 1. 0
Na6 Na1+ 4 c 0.6107(4) 0.25 0.5189(3) 0.0162(8) 1. 0
O1 O2- 8 d 0.4031(4) 0.5981(4) 0.1051(3) 0.0121(9) 1. 0
O2 O2- 8 d 0.5620(4) 0.0988(4) 0.3734(3) 0.0110(9) 1. 0
O3 O2- 4 c 0.1088(6) 0.75 0.1122(5) 0.0136(13) 1. 0
O4 O2- 4 c 0.4407(6) 0.25 0.1485(4) 0.0108(13) 1. 0
O5 O2- 8 d 0.2492(4) 0.4192(4) -.1314(4) 0.0209(10) 1. 0
H1 H1+ 8 d 0.343(6) 0.404(10) -.168(7) 0.08 1. 0
loop_
_atom_site_aniso_label
_atom_site_aniso_type_symbol
_atom_site_aniso_U_11
_atom_site_aniso_U_22
_atom_site_aniso_U_33
_atom_site_aniso_U_12
_atom_site_aniso_U_13
_atom_site_aniso_U_23
Co1 Co2+ 0.0100(7) 0.0158(6) 0.0100(5) 0 -0.0023(5) 0
Co2 Co2+ 0.0083(7) 0.0132(6) 0.0107(5) 0 -0.0001(5) 0
Na1 Na1+ 0.0349(16) 0.0128(11) 0.0183(11) 0.0008(13) -0.0131(12) -0.0023(10)
Na2 Na1+ 0.0149(14) 0.0152(13) 0.0165(12) 0.0000(11) 0.0016(10) 0.0001(10)
Na3 Na1+ 0.013(2) 0.0178(19) 0.0207(18) 0 0.0033(16) 0
Na4 Na1+ 0.0173(15) 0.0139(14) 0.0184(12) -0.0010(11) 0.0026(11) -0.0012(10)
Na5 Na1+ 0.0110(13) 0.0159(11) 0.0339(14) -0.0005(13) 0.0016(11) 0.0034(11)
Na6 Na1+ 0.016(2) 0.0160(19) 0.0164(17) 0 -0.0011(15) 0
O1 O2- 0.011(2) 0.0087(19) 0.017(2) 0.0019(17) 0.0023(17) -0.0048(17)
O2 O2- 0.011(2) 0.0079(19) 0.014(2) 0.0014(17) 0.0006(17) 0.0017(17)
O3 O2- 0.007(3) 0.013(3) 0.021(3) 0 -0.003(3) 0
O4 O2- 0.012(4) 0.009(3) 0.011(3) 0 0.000(2) 0
O5 O2- 0.012(2) 0.024(2) 0.027(2) 0.001(2) 0.0015(18) -0.005(2)
#End of TTdata_412357-ICSD