
#(C) 2019 by FIZ Karlsruhe - Leibniz Institute for Information Infrastructure.  All rights reserved.
data_412334-ICSD
_database_code_ICSD 412334
_audit_creation_date 2003-10-01
_chemical_name_systematic 'Trisodium trithiooxophosphate(V) undecahydrate'
_chemical_formula_structural 'Na3 (P O S3) (H2 O)11'
_chemical_formula_sum 'H22 Na3 O12 P1 S3'
_exptl_crystal_density_diffrn 1.59
_cell_measurement_temperature 223.
_publ_section_title
'Crystal structures of Na3 P O2 S2 * 11(H2 O) and Na3 P O S3 * 11(H2 O)'
loop_
_citation_id
_citation_journal_full
_citation_year
_citation_journal_volume
_citation_page_first
_citation_page_last
_citation_journal_id_ASTM
primary 'Monatshefte fuer Chemie' 2002 133 975 986 MOCMB7
loop_
_publ_author_name
'Pompetzki, M.'
'Jansen, M.'
_cell_length_a 12.6210(18)
_cell_length_b 9.477(2)
_cell_length_c 14.3122(18)
_cell_angle_alpha 90.
_cell_angle_beta 90.
_cell_angle_gamma 90.
_cell_volume 1711.87
_cell_formula_units_Z 4
_symmetry_space_group_name_H-M 'P n a 21'
_symmetry_Int_Tables_number 33
_refine_ls_R_factor_all 0.072
loop_
_symmetry_equiv_pos_site_id
_symmetry_equiv_pos_as_xyz
1 'x+1/2, -y+1/2, z'
2 '-x+1/2, y+1/2, z+1/2'
3 '-x, -y, z+1/2'
4 'x, y, z'
loop_
_atom_type_symbol
_atom_type_oxidation_number
P5+ 5
S2- -2
O2- -2
Na1+ 1
O2- -2
H1+ 1
O2- -2
H1+ 1
O2- -2
H1+ 1
O2- -2
H1+ 1
O2- -2
H1+ 1
O2- -2
H1+ 1
O2- -2
H1+ 1
O2- -2
H1+ 1
O2- -2
H1+ 1
O2- -2
H1+ 1
O2- -2
H1+ 1
loop_
_atom_site_label
_atom_site_type_symbol
_atom_site_symmetry_multiplicity
_atom_site_Wyckoff_symbol
_atom_site_fract_x
_atom_site_fract_y
_atom_site_fract_z
_atom_site_B_iso_or_equiv
_atom_site_occupancy
_atom_site_attached_hydrogens
P1 P5+ 4 a 0.0895(2) 0.4830(3) 0.5999(2) 0.0219(8) 1. 0
S1 S2- 4 a 0.2519(2) 0.4860(3) 0.6090(3) 0.0267(8) 1. 0
S2 S2- 4 a 0.0335(3) 0.6854(4) 0.5989(3) 0.0371(10) 1. 0
S3 S2- 4 a 0.0267(3) 0.3874(4) 0.7104(3) 0.0377(10) 1. 0
O1 O2- 4 a 0.0572(7) 0.4070(11) 0.5113(6) 0.030(2) 1. 0
Na1 Na1+ 4 a 0.2599(4) 0.5032(6) 0.9654(3) 0.0244(13) 1. 0
Na2 Na1+ 4 a 0.2948(4) 0.4854(6) 0.2645(3) 0.0250(13) 1. 0
Na3 Na1+ 4 a 0.5151(4) 0.4821(6) 0.3727(3) 0.0244(13) 1. 0
O2 O2- 4 a 0.4057(8) 0.2955(10) 0.3138(7) 0.031(3) 1. 0
H1 H1+ 4 a 0.433(11) 0.237(14) 0.253(9) 0.047 1. 0
H2 H1+ 4 a 0.365(11) 0.246(16) 0.353(11) 0.047 1. 0
O3 O2- 4 a 0.3491(8) 0.1977(12) 0.4912(8) 0.028(3) 1. 0
H3 H1+ 4 a 0.393(12) 0.164(17) 0.522(10) 0.042 1. 0
H4 H1+ 4 a 0.305(12) 0.211(17) 0.532(10) 0.042 1. 0
O4 O2- 4 a 0.2360(8) 0.3764(8) 0.1185(8) 0.028(2) 1. 0
H5 H1+ 4 a 0.285(10) 0.357(13) 0.049(9) 0.041 1. 0
H6 H1+ 4 a 0.183(11) 0.323(13) 0.137(9) 0.041 1. 0
O5 O2- 4 a 0.1476(7) 0.0877(11) 0.9119(7) 0.026(2) 1. 0
H7 H1+ 4 a 0.20(1) 0.043(14) 0.975(8) 0.039 1. 0
H8 H1+ 4 a 0.135(10) 0.197(14) 0.914(9) 0.039 1. 0
O6 O2- 4 a 0.0826(8) 0.117(1) 0.5124(7) 0.025(2) 1. 0
H9 H1+ 4 a 0.077(10) 0.081(14) 0.567(8) 0.037 1. 0
H10 H1+ 4 a 0.084(11) 0.209(15) 0.521(9) 0.037 1. 0
O7 O2- 4 a 0.3751(9) 0.3219(11) 0.9070(7) 0.025(2) 1. 0
H11 H1+ 4 a 0.364(11) 0.295(16) 0.857(10) 0.037 1. 0
H12 H1+ 4 a 0.398(11) 0.253(15) 0.937(10) 0.037 1. 0
O8 O2- 4 a 0.0225(9) 0.0626(10) 0.7066(7) 0.033(3) 1. 0
H13 H1+ 4 a -.007(12) 0.100(17) 0.75(1) 0.05 1. 0
H14 H1+ 4 a -.008(11) -.011(16) 0.664(9) 0.05 1. 0
O9 O2- 4 a 0.1811(8) 0.1087(11) 0.3142(7) 0.027(3) 1. 0
H15 H1+ 4 a 0.127(11) 0.079(16) 0.328(11) 0.041 1. 0
H16 H1+ 4 a 0.197(12) 0.159(16) 0.277(10) 0.041 1. 0
O10 O2- 4 a 0.1351(8) 0.3983(11) 0.3324(7) 0.027(3) 1. 0
H17 H1+ 4 a 0.081(12) 0.435(14) 0.305(10) 0.041 1. 0
H18 H1+ 4 a 0.142(11) 0.395(16) 0.385(10) 0.041 1. 0
O11 O2- 4 a 0.2855(10) 0.2012(13) 0.7363(8) 0.040(3) 1. 0
H19 H1+ 4 a 0.281(14) 0.253(17) 0.685(13) 0.059 1. 0
H20 H1+ 4 a 0.336(13) 0.19(2) 0.719(14) 0.059 1. 0
O12 O2- 4 a 0.1132(8) 0.3826(11) 0.9118(8) 0.035(3) 1. 0
H21 H1+ 4 a 0.103(11) 0.392(16) 0.842(12) 0.053 1. 0
H22 H1+ 4 a 0.063(11) 0.398(14) 0.986(9) 0.053 1. 0
loop_
_atom_site_aniso_label
_atom_site_aniso_type_symbol
_atom_site_aniso_U_11
_atom_site_aniso_U_22
_atom_site_aniso_U_33
_atom_site_aniso_U_12
_atom_site_aniso_U_13
_atom_site_aniso_U_23
P1 P5+ 0.0220(19) 0.0195(18) 0.0241(18) 0.0029(15) -0.0021(17) -0.007(2)
S1 S2- 0.023(2) 0.0290(19) 0.0283(17) 0.0003(15) -0.0005(17) -0.004(2)
S2 S2- 0.040(2) 0.0233(17) 0.048(2) 0.0034(17) -0.010(2) -0.006(2)
S3 S2- 0.039(2) 0.035(2) 0.039(2) -0.005(2) -0.001(2) 0.007(2)
O1 O2- 0.032(6) 0.029(6) 0.031(5) -0.008(5) 0.009(4) -0.008(5)
Na1 Na1+ 0.019(3) 0.019(3) 0.035(3) 0.000(2) 0.003(2) -0.002(2)
Na2 Na1+ 0.023(3) 0.022(3) 0.029(3) 0.001(3) 0.001(2) 0.002(3)
Na3 Na1+ 0.020(3) 0.026(3) 0.027(3) 0.000(2) -0.009(2) 0.003(3)
O2 O2- 0.037(6) 0.017(6) 0.039(6) 0.003(5) 0.007(5) 0.000(5)
O3 O2- 0.008(6) 0.034(6) 0.042(7) -0.007(4) 0.003(4) -0.015(6)
O4 O2- 0.043(7) 0.021(5) 0.019(5) -0.002(4) -0.002(5) -0.002(5)
O5 O2- 0.024(6) 0.028(6) 0.027(5) -0.004(5) -0.003(5) -0.013(5)
O6 O2- 0.027(6) 0.018(6) 0.030(6) -0.009(5) 0.005(5) 0.000(5)
O7 O2- 0.036(6) 0.005(5) 0.034(6) -0.002(5) 0.003(5) 0.006(4)
O8 O2- 0.042(7) 0.036(6) 0.021(6) 0.007(5) 0.005(5) 0.001(5)
O9 O2- 0.029(6) 0.026(7) 0.027(6) -0.014(5) 0.013(5) -0.004(5)
O10 O2- 0.030(6) 0.029(6) 0.023(5) 0.000(5) -0.010(5) 0.003(5)
O11 O2- 0.053(8) 0.033(7) 0.032(6) -0.004(6) 0.003(6) 0.012(5)
O12 O2- 0.032(7) 0.036(7) 0.038(6) -0.007(5) 0.001(5) -0.015(5)
#End of TTdata_412334-ICSD