
#(C) 2019 by FIZ Karlsruhe - Leibniz Institute for Information Infrastructure.  All rights reserved.
data_412333-ICSD
_database_code_ICSD 412333
_audit_creation_date 2003-10-01
_chemical_name_systematic 'Trisodium dithiodioxophosphate(V) undecahydrate'
_chemical_formula_structural 'Na3 (P O2 S2) (H2 O)11'
_chemical_formula_sum 'H22 Na3 O13 P1 S2'
_exptl_crystal_density_diffrn 1.6
_cell_measurement_temperature 223.
_publ_section_title
'Crystal structures of Na3 P O2 S2 * 11(H2 O) and Na3 P O S3 * 11(H2 O)'
loop_
_citation_id
_citation_journal_full
_citation_year
_citation_journal_volume
_citation_page_first
_citation_page_last
_citation_journal_id_ASTM
primary 'Monatshefte fuer Chemie' 2002 133 975 986 MOCMB7
loop_
_publ_author_name
'Pompetzki, M.'
'Jansen, M.'
_cell_length_a 12.481(1)
_cell_length_b 9.452(1)
_cell_length_c 13.831(1)
_cell_angle_alpha 90.
_cell_angle_beta 90.
_cell_angle_gamma 90.
_cell_volume 1631.65
_cell_formula_units_Z 4
_symmetry_space_group_name_H-M 'P 21 21 21'
_symmetry_Int_Tables_number 19
_refine_ls_R_factor_all 0.0202
loop_
_symmetry_equiv_pos_site_id
_symmetry_equiv_pos_as_xyz
1 '-x, y+1/2, -z+1/2'
2 'x+1/2, -y+1/2, -z'
3 '-x+1/2, -y, z+1/2'
4 'x, y, z'
loop_
_atom_type_symbol
_atom_type_oxidation_number
P5+ 5
S2- -2
Na1+ 1
O2- -2
H1+ 1
loop_
_atom_site_label
_atom_site_type_symbol
_atom_site_symmetry_multiplicity
_atom_site_Wyckoff_symbol
_atom_site_fract_x
_atom_site_fract_y
_atom_site_fract_z
_atom_site_B_iso_or_equiv
_atom_site_occupancy
_atom_site_attached_hydrogens
P1 P5+ 4 a 0.17118(2) 0.53739(3) 0.49822(2) 0.01425(5) 1. 0
S1 S2- 4 a 0.00656(2) 0.53135(3) 0.50158(2) 0.02044(6) 1. 0
S2 S2- 4 a 0.22707(3) 0.33498(3) 0.48498(2) 0.02249(6) 1. 0
Na1 Na1+ 4 a 0.01922(4) 0.01130(6) 0.65372(4) 0.02118(11) 1. 0
Na2 Na1+ 4 a 0.02646(4) 0.00173(6) 0.34509(4) 0.02114(10) 1. 0
Na3 Na1+ 4 a 0.25641(4) 0.00133(6) 0.72560(3) 0.02340(11) 1. 0
O1 O2- 4 a 0.20816(8) 0.62527(10) 0.41085(6) 0.02093(18) 1. 0
O2 O2- 4 a 0.21349(8) 0.60180(11) 0.59269(6) 0.02184(18) 1. 0
O3 O2- 4 a 0.08487(9) 0.31055(11) 0.86604(7) 0.02387(19) 1. 0
O4 O2- 4 a 0.13699(8) 0.18435(11) 0.28890(7) 0.02319(19) 1. 0
O5 O2- 4 a 0.14222(9) 0.19399(11) 0.68732(7) 0.0244(2) 1. 0
O6 O2- 4 a 0.48935(8) 0.37056(11) 0.50450(8) 0.02849(18) 1. 0
O7 O2- 4 a 0.36952(8) 0.37781(12) 0.27766(7) 0.0257(2) 1. 0
O8 O2- 4 a 0.41895(10) 0.11182(14) 0.69622(7) 0.0259(2) 1. 0
O9 O2- 4 a 0.36502(9) 0.40482(13) 0.72064(7) 0.0266(2) 1. 0
O10 O2- 4 a 0.40370(9) 0.08256(12) 0.30293(7) 0.0279(2) 1. 0
O11 O2- 4 a 0.29354(9) 0.09031(12) 0.89322(7) 0.0252(2) 1. 0
O12 O2- 4 a 0.32596(8) 0.10990(12) 0.09647(7) 0.0245(2) 1. 0
O13 O2- 4 a 0.07686(8) 0.30960(11) 0.11503(7) 0.0243(2) 1. 0
H1 H1+ 4 a 0.1409(16) 0.336(2) 0.8937(14) 0.042(6) 1. 0
H2 H1+ 4 a 0.0619(18) 0.249(2) 0.9014(16) 0.048(7) 1. 0
H3 H1+ 4 a 0.1134(14) 0.2328(18) 0.2406(13) 0.023(4) 1. 0
H4 H1+ 4 a 0.1600(16) 0.233(2) 0.3357(17) 0.049(6) 1. 0
H5 H1+ 4 a 0.1252(19) 0.243(2) 0.7328(17) 0.048(7) 1. 0
H6 H1+ 4 a 0.1547(18) 0.245(2) 0.6321(19) 0.069(8) 1. 0
H7 H1+ 4 a 0.4147(16) 0.349(2) 0.5028(15) 0.053(6) 1. 0
H8 H1+ 4 a 0.523(2) 0.302(3) 0.499(2) 0.078(8) 1. 0
H9 H1+ 4 a 0.3424(18) 0.388(3) 0.2224(16) 0.055(7) 1. 0
H10 H1+ 4 a 0.3251(17) 0.378(3) 0.3143(15) 0.045(6) 1. 0
H11 H1+ 4 a 0.417(2) 0.174(3) 0.6913(17) 0.049(8) 1. 0
H12 H1+ 4 a 0.4417(17) 0.081(2) 0.6374(14) 0.045(6) 1. 0
H13 H1+ 4 a 0.3475(17) 0.408(2) 0.7748(15) 0.044(6) 1. 0
H14 H1+ 4 a 0.3136(17) 0.435(2) 0.6919(16) 0.050(6) 1. 0
H15 H1+ 4 a 0.4016(15) 0.183(2) 0.3012(13) 0.029(5) 1. 0
H16 H1+ 4 a 0.438(2) 0.068(3) 0.3544(17) 0.065(7) 1. 0
H17 H1+ 4 a 0.2929(18) 0.173(3) 0.8942(15) 0.047(6) 1. 0
H18 H1+ 4 a 0.2294(17) 0.067(2) 0.9043(14) 0.047(6) 1. 0
H19 H1+ 4 a 0.3103(19) 0.199(3) 0.1049(17) 0.061(7) 1. 0
H20 H1+ 4 a 0.3121(17) 0.089(2) 0.0453(15) 0.052(6) 1. 0
H21 H1+ 4 a 0.1418(17) 0.327(2) 0.0929(14) 0.043(6) 1. 0
H22 H1+ 4 a 0.057(2) 0.229(3) 0.0778(18) 0.071(8) 1. 0
loop_
_atom_site_aniso_label
_atom_site_aniso_type_symbol
_atom_site_aniso_U_11
_atom_site_aniso_U_22
_atom_site_aniso_U_33
_atom_site_aniso_U_12
_atom_site_aniso_U_13
_atom_site_aniso_U_23
P1 P5+ 0.01758(12) 0.01477(11) 0.0104(1) -0.00235(9) 0.00032(10) -0.00046(10)
S1 S2- 0.01764(12) 0.02495(13) 0.01872(12) -0.00162(9) 0.00078(11) 0.00152(12)
S2 S2- 0.02750(14) 0.01670(12) 0.02327(13) 0.00194(10) 0.00092(11) -0.00065(10)
Na1 Na1+ 0.0190(2) 0.0213(2) 0.0232(2) -0.0004(2) -0.00056(17) -0.00128(19)
Na2 Na1+ 0.0206(2) 0.0212(2) 0.0216(2) -0.0018(2) 0.00187(17) 0.00156(19)
Na3 Na1+ 0.0216(2) 0.0243(2) 0.0243(2) 0.0004(2) -0.00567(18) -0.0019(2)
O1 O2- 0.0235(4) 0.0226(4) 0.0167(3) -0.0041(4) 0.0022(3) 0.0052(3)
O2 O2- 0.0244(4) 0.0256(5) 0.0155(3) -0.0034(4) -0.0011(3) -0.0060(3)
O3 O2- 0.0234(5) 0.0248(5) 0.0234(4) 0.0006(4) -0.0027(4) 0.0024(4)
O4 O2- 0.0267(5) 0.0193(4) 0.0236(4) -0.0006(4) -0.0013(4) 0.0011(4)
O5 O2- 0.0301(5) 0.0195(5) 0.0236(4) -0.0023(4) 0.0010(4) -0.0008(4)
O6 O2- 0.0313(5) 0.0301(4) 0.0241(4) 0.0056(4) 0.0005(4) -0.0019(4)
O7 O2- 0.0230(5) 0.0343(6) 0.0199(4) -0.0034(4) -0.0018(4) -0.0015(4)
O8 O2- 0.0305(5) 0.0253(5) 0.0219(4) -0.0022(5) 0.0028(4) 0.0013(4)
O9 O2- 0.0263(5) 0.0314(5) 0.0220(4) -0.0020(4) 0.0031(4) 0.0021(4)
O10 O2- 0.0337(5) 0.0278(5) 0.0220(4) 0.0029(4) -0.0093(4) -0.0029(4)
O11 O2- 0.0295(5) 0.0223(5) 0.0238(4) 0.0014(4) -0.0015(4) -0.0031(4)
O12 O2- 0.0324(5) 0.0236(5) 0.0175(4) 0.0032(4) -0.0013(4) 0.0043(3)
O13 O2- 0.0248(5) 0.0233(5) 0.0247(4) 0.0012(4) 0.0024(4) -0.0045(4)
#End of TTdata_412333-ICSD