
#(C) 2019 by FIZ Karlsruhe - Leibniz Institute for Information Infrastructure.  All rights reserved.
data_412586-ICSD
_database_code_ICSD 412586
_audit_creation_date 2003-04-01
_chemical_name_systematic 'Octasodium trioxocobaltate bis(sulfate(VI))'
_chemical_formula_structural 'Na8 (Co O3) (S O4)2'
_chemical_formula_sum 'Co1 Na8 O11 S2'
_exptl_crystal_density_diffrn 2.52
_cell_measurement_temperature 170.
_publ_section_title 'Ein Natrium-Oxocobaltat(II)-Sulfat: Na8 (Co O3) (S O4)2'
loop_
_citation_id
_citation_journal_full
_citation_year
_citation_journal_volume
_citation_page_first
_citation_page_last
_citation_journal_id_ASTM
primary 'Zeitschrift fuer Anorganische und Allgemeine Chemie (1950) (DE)' 2002
628 2705 2708 ZAACAB
loop_
_publ_author_name
'Moeller, A.'
'Sobotka, B.M.'
'Baier, J.'
'Freimuth, A.'
_cell_length_a 8.0688(9)
_cell_length_b 22.321(3)
_cell_length_c 7.0597(9)
_cell_angle_alpha 90.
_cell_angle_beta 90.
_cell_angle_gamma 90.
_cell_volume 1271.48
_cell_formula_units_Z 4
_symmetry_space_group_name_H-M 'C m c m'
_symmetry_Int_Tables_number 63
_refine_ls_R_factor_all 0.0436
loop_
_symmetry_equiv_pos_site_id
_symmetry_equiv_pos_as_xyz
1 '-x, y, -z+1/2'
2 '-x, -y, z+1/2'
3 '-x, y, z'
4 '-x, -y, -z'
5 'x, -y, z+1/2'
6 'x, y, -z+1/2'
7 'x, -y, -z'
8 'x, y, z'
9 '-x+1/2, y+1/2, -z+1/2'
10 '-x+1/2, -y+1/2, z+1/2'
11 '-x+1/2, y+1/2, z'
12 '-x+1/2, -y+1/2, -z'
13 'x+1/2, -y+1/2, z+1/2'
14 'x+1/2, y+1/2, -z+1/2'
15 'x+1/2, -y+1/2, -z'
16 'x+1/2, y+1/2, z'
loop_
_atom_type_symbol
_atom_type_oxidation_number
Co2+ 2
O2- -2
Na1+ 1
S6+ 6
O2- -2
S6+ 6
O2- -2
loop_
_atom_site_label
_atom_site_type_symbol
_atom_site_symmetry_multiplicity
_atom_site_Wyckoff_symbol
_atom_site_fract_x
_atom_site_fract_y
_atom_site_fract_z
_atom_site_B_iso_or_equiv
_atom_site_occupancy
_atom_site_attached_hydrogens
Co1 Co2+ 4 c 0 0.07939(3) 0.25 0.0116(3) 1. 0
O1 O2- 8 g 0.2179(4) 0.06086(15) 0.25 0.0193(7) 1. 0
O2 O2- 4 c 0 0.16604(18) 0.25 0.0164(9) 1. 0
Na1 Na1+ 8 e 0.2577(2) 0 0 0.0218(5) 1. 0
Na2 Na1+ 16 h 0.2058(2) 0.15820(7) 0.0278(2) 0.0290(4) 1. 0
Na3 Na1+ 4 c 0 0.26381(14) 0.25 0.0527(12) 1. 0
Na4 Na1+ 4 c 0.5 0.07766(13) 0.25 0.0202(6) 1. 0
S1 S6+ 4 c 0.5 0.09741(7) 0.75 0.0146(4) 1. 0
O11 O2- 8 f 0.5 0.05996(17) 0.9199(5) 0.0295(8) 1. 0
O12 O2- 8 g 0.3518(6) 0.1363(2) 0.75 0.0418(11) 1. 0
S2 S6+ 8 g 0.4767(14) 0.75852(11) 0.75 0.040(2) 0.5 0
O21 O2- 16 h 0.3545(8) 0.7599(2) 0.5831(8) 0.0325(12) 0.5 0
O22 O2- 8 g 0.543(2) 0.7027(4) 0.75 0.088(5) 0.5 0
O23 O2- 16 h 0.545(2) 0.8139(5) 0.698(3) 0.088(5) 0.25 0
loop_
_atom_site_aniso_label
_atom_site_aniso_type_symbol
_atom_site_aniso_U_11
_atom_site_aniso_U_22
_atom_site_aniso_U_33
_atom_site_aniso_U_12
_atom_site_aniso_U_13
_atom_site_aniso_U_23
Co1 Co2+ 0.0104(4) 0.0131(4) 0.0114(4) 0 0 0
O1 O2- 0.0125(14) 0.0257(17) 0.0196(15) 0.0006(12) 0 0
O2 O2- 0.020(2) 0.014(2) 0.015(2) 0 0 0
Na1 Na1+ 0.0209(10) 0.0228(9) 0.0217(10) 0 0 -0.0047(7)
Na2 Na1+ 0.0324(8) 0.0251(7) 0.0294(8) 0.0036(6) 0.0155(7) 0.0058(6)
Na3 Na1+ 0.105(4) 0.0154(15) 0.037(2) 0 0 0
Na4 Na1+ 0.0123(12) 0.0312(15) 0.0172(13) 0 0 0
S1 S6+ 0.0160(7) 0.0181(7) 0.0098(6) 0 0 0
O11 O2- 0.035(2) 0.0332(19) 0.0206(17) 0 0 0.0083(15)
O12 O2- 0.041(2) 0.055(3) 0.029(2) 0.026(2) 0 0
S2 S6+ 0.042(7) 0.0167(9) 0.0609(17) -0.0049(14) 0 0
O21 O2- 0.039(3) 0.025(2) 0.033(3) 0.005(2) -0.009(3) -0.005(2)
O22 O2- 0.109(15) 0.039(4) 0.117(9) 0.039(6) 0 0
O23 O2- 0.109(15) 0.039(4) 0.117(9) 0.039(6) 0 0
#End of TTdata_412586-ICSD