
#(C) 2019 by FIZ Karlsruhe - Leibniz Institute for Information Infrastructure.  All rights reserved.
data_412788-ICSD
_database_code_ICSD 412788
_audit_creation_date 2005-10-01
_chemical_name_systematic 'Heptasodium heptamolybdate hydoxide 21-hydrate'
_chemical_formula_structural 'Na7 (Mo7 O24) (O H) (H2 O)21'
_chemical_formula_sum 'H43 Mo7 Na7 O46'
_exptl_crystal_density_diffrn 2.58
_publ_section_title

;
The isolation and X-Ray characterization of a new sodium heptamolybdate
compound, Na7 [Mo7 O24] O H * 21 H2 O
;
loop_
_citation_id
_citation_journal_full
_citation_year
_citation_journal_volume
_citation_page_first
_citation_page_last
_citation_journal_id_ASTM
primary 'Inorganica Chimica Acta' 2003 348 205 211 ICHAA3
loop_
_publ_author_name
'Cruywagen, J.J.'
'Esterhuysen, M.W.'
'Heyns, J.B.B.'
_cell_length_a 12.84070(10)
_cell_length_b 9.92790(10)
_cell_length_c 16.2632(2)
_cell_angle_alpha 90.
_cell_angle_beta 92.2930(10)
_cell_angle_gamma 90.
_cell_volume 2071.59
_cell_formula_units_Z 2
_symmetry_space_group_name_H-M 'P 1 2/n 1'
_symmetry_Int_Tables_number 13
_refine_ls_R_factor_all 0.0469
loop_
_symmetry_equiv_pos_site_id
_symmetry_equiv_pos_as_xyz
1 'x+1/2, -y, z+1/2'
2 '-x+1/2, y, -z+1/2'
3 '-x, -y, -z'
4 'x, y, z'
loop_
_atom_type_symbol
_atom_type_oxidation_number
O2- -2
Na1+ 1
Mo6+ 6
H1+ 1
loop_
_atom_site_label
_atom_site_type_symbol
_atom_site_symmetry_multiplicity
_atom_site_Wyckoff_symbol
_atom_site_fract_x
_atom_site_fract_y
_atom_site_fract_z
_atom_site_B_iso_or_equiv
_atom_site_occupancy
_atom_site_attached_hydrogens
O1 O2- 4 g 0.8214(4) -0.0897(5) 0.5590(3) 0.0207(10) 1 0
O2 O2- 4 g 0.3376(4) 0.2504(5) 0.4957(3) 0.0197(10) 1 0
O3 O2- 4 g 0.3439(3) 0.1224(5) 0.3412(3) 0.0128(9) 1 0
O4 O2- 4 g 0.5326(4) 0.2519(5) 0.3811(3) 0.0193(10) 1 0
O5 O2- 4 g 0.5103(4) 0.0960(5) 0.2447(3) 0.0186(10) 1 0
O6 O2- 4 g 0.5138(3) 0.3811(5) 0.2364(3) 0.0136(9) 1 0
O7 O2- 4 g 0.3457(3) 0.2753(4) 0.1918(2) 0.0085(8) 1 0
O8 O2- 4 g 0.5383(4) 0.2841(5) 0.0791(3) 0.0187(10) 1 0
O9 O2- 4 g 0.5003(4) 0.5520(5) 0.0993(3) 0.0205(10) 1 0
O10 O2- 4 g 0.3348(3) 0.3762(5) 0.0536(3) 0.0131(9) 1 0
O11 O2- 4 g 0.3316(3) 0.5455(5) 0.1974(3) 0.0156(9) 1 0
O12 O2- 4 g 0.1607(3) 0.3785(4) 0.1622(2) 0.0101(8) 1 0
O13 O2- 4 g 0.3435(4) 0.2662(5) 0.8764(3) 0.0201(10) 1 0
O14 O2- 4 g 0.3494(4) 0.1014(5) 0.6815(3) 0.0259(12) 1 0
O15 O2- 4 g 0.3568(4) 0.4343(6) 0.6791(3) 0.0281(12) 1 0
O16 O2- 4 g 0.5457(5) 0.2342(6) 0.7399(3) 0.0312(13) 1 0
O17 O2- 4 g 0.5660(4) 0.4251(5) 0.5558(3) 0.0238(11) 1 0
O18 O2- 4 g 0.5656(5) 0.0835(6) 0.5554(3) 0.0331(14) 1 0
O19 O2- 4 g 0.7580(4) 0.4311(5) 0.4484(3) 0.0212(10) 1 0
O20 O2- 4 g 0.7867(4) 0.2173(6) 0.5941(3) 0.0247(11) 1 0
O21 O2- 4 g 0.7503(6) 0.1296(7) 0.3907(4) 0.0467(18) 1 0
O22 O2- 4 g 1.0362(4) 0.0411(6) 0.5939(3) 0.0271(12) 1 0
O23 O2- 2 f 0.75 0.2927(11) 0.25 0.069(4) 1 0
O24 O2- 2 e 0.25 -0.0833(9) 0.25 0.0339(19) 1 0
Na1 Na1+ 2 f 0.25 0.2735(4) 0.75 0.0226(9) 1 0
Na2 Na1+ 4 g 0.4564(2) 0.2582(3) 0.61055(19) 0.0243(6) 1 0
Na3 Na1+ 4 g 0.6538(4) 0.2514(6) 0.4923(3) 0.0730(14) 1 0
Na4 Na1+ 4 g 0.8954(3) 0.1069(3) 0.5028(2) 0.0348(8) 1 0
Mo1 Mo6+ 4 g 0.25361(4) 0.22265(6) 0.41272(3) 0.00980(16) 1 0
Mo2 Mo6+ 4 g 0.45532(4) 0.22901(6) 0.29416(3) 0.01007(16) 1 0
Mo3 Mo6+ 4 g 0.45507(4) 0.39550(6) 0.12413(3) 0.01031(16) 1 0
Mo4 Mo6+ 2 e 0.25 0.43769(7) 0.25 0.00798(18) 1 0
H1 H1+ 4 g 0.299(4) 0.268(7) 0.912(3) 0.012 1 0
H2 H1+ 4 g 0.376(5) 0.336(4) 0.888(4) 0.012 1 0
H3 H1+ 4 g 0.392(4) 0.057(5) 0.710(4) 0.012 1 0
H4 H1+ 4 g 0.318(5) 0.041(4) 0.656(4) 0.012 1 0
H5 H1+ 4 g 0.398(4) 0.489(5) 0.701(4) 0.012 1 0
H6 H1+ 4 g 0.337(5) 0.477(6) 0.638(3) 0.012 1 0
H7 H1+ 4 g 0.564(5) 0.299(4) 0.770(4) 0.012 1 0
H8 H1+ 4 g 0.599(3) 0.187(5) 0.746(4) 0.012 1 0
H9 H1+ 4 g 0.526(4) 0.476(5) 0.530(4) 0.012 1 0
H10 H1+ 4 g 0.596(5) 0.475(5) 0.590(3) 0.012 1 0
H11 H1+ 4 g 0.590(5) 0.043(6) 0.596(3) 0.012 1 0
H12 H1+ 4 g 0.524(5) 0.029(5) 0.535(4) 0.012 1 0
H13 H1+ 4 g 0.809(5) 0.384(11) 0.438(7) 0.012 0.5 0
H14 H1+ 4 g 0.782(5) 0.479(6) 0.486(3) 0.012 1 0
H15 H1+ 4 g 0.794(6) 0.298(2) 0.607(4) 0.012 1 0
H16 H1+ 4 g 0.776(6) 0.184(6) 0.6398(19) 0.012 1 0
H17 H1+ 4 g 0.761(6) 0.179(5) 0.351(3) 0.012 1 0
H18 H1+ 4 g 0.761(6) 0.056(3) 0.369(4) 0.012 1 0
H19 H1+ 4 g 1.013(5) 0.017(7) 0.639(2) 0.012 1 0
H20 H1+ 4 g 1.079(4) 0.100(5) 0.608(4) 0.012 1 0
H21 H1+ 4 g 0.7013(18) 0.347(3) 0.242(5) 0.012 1 0
H22 H1+ 4 g 0.210(4) -0.030(3) 0.225(4) 0.012 1 0
loop_
_atom_site_aniso_label
_atom_site_aniso_type_symbol
_atom_site_aniso_U_11
_atom_site_aniso_U_22
_atom_site_aniso_U_33
_atom_site_aniso_U_12
_atom_site_aniso_U_13
_atom_site_aniso_U_23
O1 O2- 0.021(2) 0.019(3) 0.022(2) -0.003(2) 0.004(2) 0.007(2)
O2 O2- 0.021(2) 0.027(3) 0.010(2) 0.001(2) -0.0070(18) 0.0025(19)
O3 O2- 0.014(2) 0.013(2) 0.011(2) 0.0012(18) -0.0002(16) 0.0025(17)
O4 O2- 0.012(2) 0.027(3) 0.017(2) 0.002(2) -0.0054(18) 0.000(2)
O5 O2- 0.019(2) 0.018(2) 0.019(2) 0.005(2) 0.0014(19) 0.0026(19)
O6 O2- 0.0087(19) 0.018(2) 0.014(2) -0.0034(18) -0.0015(16) 0.0007(18)
O7 O2- 0.0070(19) 0.011(2) 0.0072(19) -0.0003(16) 0.0001(15) 0.0004(16)
O8 O2- 0.015(2) 0.024(3) 0.017(2) 0.000(2) -0.0019(18) 0.000(2)
O9 O2- 0.019(2) 0.020(3) 0.022(2) -0.003(2) 0.0030(19) 0.004(2)
O10 O2- 0.012(2) 0.018(2) 0.009(2) 0.0014(18) -0.0009(16) 0.0029(18)
O11 O2- 0.017(2) 0.015(2) 0.014(2) -0.0036(19) -0.0005(17) 0.0031(18)
O12 O2- 0.011(2) 0.012(2) 0.0074(19) 0.0011(17) 0.0010(15) 0.0007(16)
O13 O2- 0.020(2) 0.028(3) 0.012(2) -0.004(2) 0.0024(18) -0.004(2)
O14 O2- 0.026(3) 0.020(3) 0.031(3) 0.000(2) -0.012(2) 0.001(2)
O15 O2- 0.026(3) 0.026(3) 0.031(3) -0.009(2) -0.016(2) 0.007(2)
O16 O2- 0.032(3) 0.033(3) 0.027(3) -0.005(3) -0.013(2) -0.003(2)
O17 O2- 0.027(3) 0.018(3) 0.026(3) -0.002(2) -0.011(2) -0.003(2)
O18 O2- 0.060(4) 0.020(3) 0.019(3) 0.009(3) -0.002(3) 0.002(2)
O19 O2- 0.025(3) 0.019(3) 0.019(2) -0.003(2) -0.004(2) -0.005(2)
O20 O2- 0.031(3) 0.021(3) 0.021(3) 0.000(2) -0.002(2) 0.000(2)
O21 O2- 0.065(4) 0.026(3) 0.046(4) -0.010(3) -0.028(3) 0.001(3)
O22 O2- 0.026(3) 0.028(3) 0.027(3) -0.007(2) 0.003(2) 0.004(2)
O23 O2- 0.124(11) 0.031(5) 0.056(7) 0. 0.046(8) 0.
O24 O2- 0.038(5) 0.037(5) 0.027(4) 0. 0.007(3) 0.
Na1 Na1+ 0.022(2) 0.022(2) 0.023(2) 0. -0.0071(16) 0.
Na2 Na1+ 0.0206(14) 0.0205(15) 0.0307(16) 0.0002(12) -0.0134(12) -0.0006(12)
Na3 Na1+ 0.074(3) 0.074(4) 0.070(3) -0.004(3) -0.007(3) 0.003(3)
Na4 Na1+ 0.0369(18) 0.0245(16) 0.0448(19) 0.0092(14) 0.0234(15) 0.0124(15)
Mo1 Mo6+ 0.0091(3) 0.0137(3) 0.0064(3) -0.0001(2) -0.00119(18) 0.00220(19)
Mo2 Mo6+ 0.0076(3) 0.0139(3) 0.0085(3) 0.0019(2) -0.00160(18) 0.0006(2)
Mo3 Mo6+ 0.0085(3) 0.0133(3) 0.0092(3) -0.0008(2) 0.00045(18) 0.0013(2)
Mo4 Mo6+ 0.0082(3) 0.0088(4) 0.0067(3) 0. -0.0012(3) 0.
#End of TTdata_412788-ICSD