
#(C) 2019 by FIZ Karlsruhe - Leibniz Institute for Information Infrastructure.  All rights reserved.
data_412811-ICSD
_database_code_ICSD 412811
_audit_creation_date 2004-04-01
_chemical_name_systematic 'Trisodium triammonium decavanadate(V) dodecahydrate'
_chemical_formula_structural 'Na3 (N H4)3 (V10 O28) (H2 O)12'
_chemical_formula_sum 'H36 N3 Na3 O40 V10'
_exptl_crystal_density_diffrn 2.42
_cell_measurement_temperature 100.
_publ_section_title

;
Catalytical decomposition of L-glutamic acid and L-glutamine vanadium species.
Electronic spectra of ammonium-sodium oligovanadates isolated from the system
(Na V O3 (V O S O4) - Glu(Gln)). Crystal structure of Na3 (N H4)3 (V10 O28) *
12(H2 O)
;
loop_
_citation_id
_citation_journal_full
_citation_year
_citation_journal_volume
_citation_page_first
_citation_page_last
_citation_journal_id_ASTM
primary Polyhedron 2003 22 1415 1423 PLYHDE
loop_
_publ_author_name
'Maciejewska, G.'
'Nosek, M.'
'Glovyak, T.'
'Starosta, J.'
'Cieslak-Golonka, M.'
_cell_length_a 11.992(2)
_cell_length_b 17.100(3)
_cell_length_c 18.038(4)
_cell_angle_alpha 90.
_cell_angle_beta 105.89(3)
_cell_angle_gamma 90.
_cell_volume 3557.59
_cell_formula_units_Z 4
_symmetry_space_group_name_H-M 'P 1 21/n 1'
_symmetry_Int_Tables_number 14
_refine_ls_R_factor_all 0.0481
loop_
_symmetry_equiv_pos_site_id
_symmetry_equiv_pos_as_xyz
1 '-x+1/2, y+1/2, -z+1/2'
2 '-x, -y, -z'
3 'x+1/2, -y+1/2, z+1/2'
4 'x, y, z'
loop_
_atom_type_symbol
_atom_type_oxidation_number
V5+ 5
O2- -2
Na1+ 1
O2- -2
N3- -3
H1+ 1
loop_
_atom_site_label
_atom_site_type_symbol
_atom_site_symmetry_multiplicity
_atom_site_Wyckoff_symbol
_atom_site_fract_x
_atom_site_fract_y
_atom_site_fract_z
_atom_site_B_iso_or_equiv
_atom_site_occupancy
_atom_site_attached_hydrogens
V1 V5+ 4 e 0.12321(4) 0.46453(3) 0.39365(3) 0.00843(12) 1. 0
V2 V5+ 4 e 0.12812(4) 0.28367(3) 0.39487(3) 0.00843(12) 1. 0
V3 V5+ 4 e 0.35084(4) 0.37692(3) 0.39315(3) 0.00742(11) 1. 0
V4 V5+ 4 e -.01505(4) 0.37261(3) 0.24869(3) 0.00777(11) 1. 0
V5 V5+ 4 e 0.20516(4) 0.47015(3) 0.24653(3) 0.00626(11) 1. 0
V6 V5+ 4 e 0.21088(4) 0.27901(3) 0.24795(3) 0.00634(11) 1. 0
V7 V5+ 4 e 0.43320(4) 0.37867(3) 0.24632(3) 0.00705(11) 1. 0
V8 V5+ 4 e 0.06544(4) 0.36928(3) 0.10140(3) 0.00787(12) 1. 0
V9 V5+ 4 e 0.28403(4) 0.46549(3) 0.09845(3) 0.00846(12) 1. 0
V10 V5+ 4 e 0.29539(4) 0.28514(3) 0.10192(3) 0.00894(12) 1. 0
O1 O2- 4 e 0.17217(17) 0.37459(11) 0.31132(11) 0.0083(5) 1. 0
O2 O2- 4 e 0.24310(17) 0.37374(12) 0.18435(11) 0.0084(5) 1. 0
O3 O2- 4 e 0.36541(17) 0.30390(11) 0.30965(11) 0.0066(5) 1. 0
O4 O2- 4 e 0.36050(17) 0.44941(11) 0.30757(11) 0.0074(5) 1. 0
O5 O2- 4 e 0.05146(17) 0.44426(12) 0.18591(11) 0.0077(5) 1. 0
O6 O2- 4 e 0.05499(17) 0.29881(12) 0.18721(11) 0.0082(5) 1. 0
O7 O2- 4 e 0.09863(17) 0.37431(12) 0.44177(11) 0.0085(5) 1. 0
O8 O2- 4 e 0.28508(17) 0.45630(12) 0.43485(11) 0.0087(5) 1. 0
O9 O2- 4 e -.01808(17) 0.45077(11) 0.31695(11) 0.0077(5) 1. 0
O10 O2- 4 e 0.16688(17) 0.52976(12) 0.31040(11) 0.0080(5) 1. 0
O11 O2- 4 e -.01263(17) 0.29411(12) 0.31921(11) 0.0090(5) 1. 0
O12 O2- 4 e 0.28919(17) 0.29822(12) 0.43666(11) 0.0085(5) 1. 0
O13 O2- 4 e 0.17576(17) 0.21973(12) 0.31381(11) 0.0086(5) 1. 0
O14 O2- 4 e 0.23979(17) 0.52957(12) 0.18086(11) 0.0085(5) 1. 0
O15 O2- 4 e 0.24936(17) 0.21935(12) 0.18374(11) 0.0086(5) 1. 0
O16 O2- 4 e 0.42791(17) 0.45554(12) 0.17671(11) 0.0081(5) 1. 0
O17 O2- 4 e 0.43406(18) 0.29811(12) 0.17964(11) 0.0104(5) 1. 0
O18 O2- 4 e 0.12651(18) 0.45070(12) 0.05817(11) 0.0103(5) 1. 0
O19 O2- 4 e 0.13187(17) 0.29328(12) 0.05888(11) 0.0093(5) 1. 0
O20 O2- 4 e 0.31762(18) 0.37492(12) 0.05383(11) 0.0109(5) 1. 0
O21 O2- 4 e 0.09347(18) 0.53291(12) 0.44637(11) 0.0119(5) 1. 0
O22 O2- 4 e 0.10326(18) 0.21396(12) 0.44837(11) 0.0118(5) 1. 0
O23 O2- 4 e 0.48542(17) 0.38043(12) 0.44383(11) 0.0103(5) 1. 0
O24 O2- 4 e -.14666(18) 0.37098(12) 0.19503(11) 0.0104(5) 1. 0
O25 O2- 4 e 0.56565(17) 0.37985(12) 0.29953(11) 0.0101(5) 1. 0
O26 O2- 4 e -.07048(18) 0.36702(12) 0.05178(11) 0.0110(5) 1. 0
O27 O2- 4 e 0.30976(18) 0.53416(12) 0.04484(12) 0.0129(5) 1. 0
O28 O2- 4 e 0.32812(19) 0.21640(13) 0.05135(12) 0.0142(5) 1. 0
Na1 Na1+ 4 e -.2839(1) 0.37433(7) 0.06420(7) 0.0148(5) 1. 0
Na2 Na1+ 4 e -.19296(10) 0.63880(7) 0.17031(7) 0.0132(3) 1. 0
Na3 Na1+ 4 e -.18884(10) 0.10579(7) 0.17573(7) 0.0139(3) 1. 0
O29 O2- 4 e -.38543(18) 0.46730(13) 0.11212(12) 0.0153(5) 1. 0
O30 O2- 4 e -.37326(19) 0.28302(13) 0.12418(12) 0.0156(5) 1. 0
O31 O2- 4 e -.38281(19) 0.62694(13) 0.07919(12) 0.0147(5) 1. 0
O32 O2- 4 e -.10202(19) 0.55401(13) 0.10147(12) 0.0144(5) 1. 0
O33 O2- 4 e -.22947(19) 0.52879(13) 0.24677(12) 0.0148(5) 1. 0
O34 O2- 4 e -.1422(2) 0.74772(13) 0.09855(13) 0.0172(6) 1. 0
O35 O2- 4 e -.0077(2) 0.64819(13) 0.25853(14) 0.0212(6) 1. 0
O36 O2- 4 e -.27875(19) 0.71614(14) 0.24387(12) 0.0172(6) 1. 0
O37 O2- 4 e -.1621(2) 0.00012(13) 0.08983(12) 0.0188(6) 1. 0
O38 O2- 4 e -.37865(19) 0.12342(13) 0.09574(12) 0.0158(5) 1. 0
O39 O2- 4 e -.1175(2) 0.19229(13) 0.09831(12) 0.0163(6) 1. 0
O40 O2- 4 e 0.0048(2) 0.09997(13) 0.24815(14) 0.0216(6) 1. 0
N1 N3- 4 e 0.4093(2) 0.15534(15) 0.38849(14) 0.0115(6) 1. 0
N2 N3- 4 e -.3241(2) -.12828(16) 0.09160(15) 0.0167(7) 1. 0
N3 N3- 4 e 0.0938(2) 0.09801(15) 0.10899(15) 0.0136(6) 1. 0
H1 H1+ 4 e -.394 0.5214 0.0944 0.035 1. 0
H2 H1+ 4 e -.4426 0.4623 0.1275 0.035 1. 0
H3 H1+ 4 e -.3859 0.2261 0.1035 0.035 1. 0
H4 H1+ 4 e -.4446 0.2941 0.1308 0.035 1. 0
H5 H1+ 4 e -.448 0.6591 0.0696 0.035 1. 0
H6 H1+ 4 e -.369 0.637 0.0414 0.035 1. 0
H7 H1+ 4 e -.1064 0.5444 0.0533 0.035 1. 0
H8 H1+ 4 e -.0677 0.5172 0.1236 0.035 1. 0
H9 H1+ 4 e -.1634 0.5039 0.2711 0.035 1. 0
H10 H1+ 4 e -.2766 0.5005 0.2116 0.035 1. 0
H11 H1+ 4 e -.1239 0.7428 0.0523 0.035 1. 0
H12 H1+ 4 e -.0868 0.7851 0.1144 0.035 1. 0
H13 H1+ 4 e 0.0528 0.6176 0.2808 0.035 1. 0
H14 H1+ 4 e 0.0245 0.6951 0.2775 0.035 1. 0
H15 H1+ 4 e -.3474 0.7423 0.2252 0.035 1. 0
H16 H1+ 4 e -.2281 0.7493 0.2768 0.035 1. 0
H17 H1+ 4 e -.1616 0.0116 0.0514 0.035 1. 0
H18 H1+ 4 e -.0912 -.0388 0.1019 0.035 1. 0
H19 H1+ 4 e -.3822 0.1246 0.0503 0.035 1. 0
H20 H1+ 4 e -.4469 0.1191 0.1042 0.035 1. 0
H21 H1+ 4 e -.0621 0.2309 0.1208 0.035 1. 0
H22 H1+ 4 e -.1593 0.2156 0.0472 0.035 1. 0
H23 H1+ 4 e 0.0558 0.1341 0.2676 0.035 1. 0
H24 H1+ 4 e 0.0425 0.0588 0.2638 0.035 1. 0
H25 H1+ 4 e 0.4801 0.1276 0.3904 0.035 1. 0
H26 H1+ 4 e 0.3525 0.1225 0.3668 0.035 1. 0
H27 H1+ 4 e 0.4039 0.1592 0.4376 0.035 1. 0
H28 H1+ 4 e 0.4053 0.1983 0.3639 0.035 1. 0
H29 H1+ 4 e -.2684 -.0877 0.1052 0.035 1. 0
H30 H1+ 4 e -.2785 -.172 0.0992 0.035 1. 0
H31 H1+ 4 e -.3754 -.1283 0.1246 0.035 1. 0
H32 H1+ 4 e -.3691 -.1238 0.0383 0.035 1. 0
H33 H1+ 4 e 0.023 0.1232 0.1105 0.035 1. 0
H34 H1+ 4 e 0.1509 0.1323 0.1317 0.035 1. 0
H35 H1+ 4 e 0.1032 0.0491 0.1378 0.035 1. 0
H36 H1+ 4 e 0.0941 0.0869 0.0566 0.035 1. 0
loop_
_atom_site_aniso_label
_atom_site_aniso_type_symbol
_atom_site_aniso_U_11
_atom_site_aniso_U_22
_atom_site_aniso_U_33
_atom_site_aniso_U_12
_atom_site_aniso_U_13
_atom_site_aniso_U_23
V1 V5+ 0.0112(2) 0.0089(2) 0.0060(2) 0.0002(2) 0.00364(18) -0.00048(19)
V2 V5+ 0.0114(2) 0.0086(2) 0.0063(2) -0.0005(2) 0.00405(18) 0.00074(19)
V3 V5+ 0.0085(2) 0.0094(2) 0.0045(2) 0.0008(2) 0.00198(18) 0.00073(19)
V4 V5+ 0.0078(2) 0.0100(2) 0.0060(2) -0.0008(2) 0.00255(18) 0.00017(19)
V5 V5+ 0.0082(2) 0.0060(2) 0.0046(2) -0.0004(2) 0.00177(18) 0.00021(18)
V6 V5+ 0.0078(2) 0.0071(2) 0.0043(2) 0.0001(2) 0.00194(17) 0.00011(18)
V7 V5+ 0.0075(2) 0.0085(2) 0.0056(2) 0.0004(2) 0.00257(18) 0.00046(19)
V8 V5+ 0.0083(2) 0.0111(2) 0.0041(2) -0.0003(2) 0.00150(18) -0.0001(2)
V9 V5+ 0.0109(2) 0.0094(2) 0.0057(2) -0.0005(2) 0.00329(19) 0.00095(19)
V10 V5+ 0.0114(2) 0.0095(2) 0.0065(2) 0.0009(2) 0.00343(19) -0.00094(19)
O1 O2- 0.0109(9) 0.0071(9) 0.0088(9) -0.0002(8) 0.0057(8) 0.0011(8)
O2 O2- 0.0111(9) 0.0075(9) 0.0079(9) 0.0011(9) 0.0050(8) 0.0002(8)
O3 O2- 0.0075(9) 0.0070(9) 0.0059(9) 0.0021(8) 0.0027(7) 0.0008(8)
O4 O2- 0.0075(9) 0.0077(10) 0.0077(9) -0.0022(8) 0.0031(7) -0.0020(8)
O5 O2- 0.0066(9) 0.0084(10) 0.0080(9) 0.0000(8) 0.0019(8) 0.0007(8)
O6 O2- 0.0074(9) 0.0098(10) 0.0066(9) -0.0032(9) 0.0006(7) -0.0013(8)
O7 O2- 0.0090(9) 0.0107(10) 0.0069(9) -0.0020(9) 0.0041(7) 0.0001(8)
O8 O2- 0.0115(10) 0.011(1) 0.0038(9) -0.0016(9) 0.0022(8) -0.0026(8)
O9 O2- 0.0069(9) 0.0088(10) 0.0083(9) 0.0015(8) 0.0035(7) 0.0004(8)
O10 O2- 0.0099(10) 0.0079(10) 0.0065(9) 0.0014(8) 0.0029(8) -0.0009(8)
O11 O2- 0.0086(9) 0.010(1) 0.0098(10) -0.0006(9) 0.0049(8) 0.0001(8)
O12 O2- 0.0109(10) 0.0099(10) 0.0041(9) 0.0019(9) 0.0010(8) 0.0019(8)
O13 O2- 0.0096(10) 0.0081(10) 0.0077(9) -0.0013(9) 0.0018(8) 0.0004(8)
O14 O2- 0.0109(10) 0.0078(10) 0.0069(9) -0.0003(9) 0.0027(8) 0.0003(8)
O15 O2- 0.0101(10) 0.0077(10) 0.0080(9) -0.0001(8) 0.0026(8) -0.0006(8)
O16 O2- 0.0085(9) 0.008(1) 0.0091(9) -0.0012(8) 0.0045(8) -0.0010(8)
O17 O2- 0.0129(10) 0.0092(10) 0.0099(10) 0.0019(9) 0.0046(8) 0.0013(8)
O18 O2- 0.0135(10) 0.0116(10) 0.0057(9) 0.0006(9) 0.0025(8) 0.0005(8)
O19 O2- 0.0108(10) 0.0114(10) 0.0056(9) -0.0004(9) 0.0021(8) -0.0006(8)
O20 O2- 0.012(1) 0.0134(10) 0.0071(9) 0.0006(9) 0.0023(8) 0.0001(8)
O21 O2- 0.0145(10) 0.0115(10) 0.0103(10) 0.0004(9) 0.0042(8) -0.0013(8)
O22 O2- 0.0142(10) 0.0131(10) 0.0096(10) -0.0020(9) 0.0057(8) 0.0010(8)
O23 O2- 0.0094(9) 0.0129(10) 0.009(1) 0.0014(9) 0.0031(8) 0.0003(8)
O24 O2- 0.0084(9) 0.0147(10) 0.0081(9) -0.0010(9) 0.0021(8) 0.0006(8)
O25 O2- 0.0087(9) 0.0112(10) 0.0109(10) -0.0005(9) 0.0035(8) 0.0003(8)
O26 O2- 0.011(1) 0.0160(11) 0.0054(9) -0.0018(9) 0.0013(8) -0.0009(8)
O27 O2- 0.0165(10) 0.0119(10) 0.0111(10) -0.0005(9) 0.0052(8) 0.0022(8)
O28 O2- 0.0176(11) 0.0148(11) 0.0107(10) 0.0026(10) 0.0049(8) -0.0020(9)
Na1 Na1+ 0.0150(6) 0.0186(6) 0.0117(6) 0.0005(5) 0.0054(5) 0.0015(5)
Na2 Na1+ 0.0135(6) 0.0161(6) 0.0116(5) 0.0022(5) 0.0059(4) -0.0007(5)
Na3 Na1+ 0.0126(6) 0.0180(6) 0.0114(6) -0.0038(5) 0.0039(5) -0.0001(5)
O29 O2- 0.0154(10) 0.0154(11) 0.0181(11) 0.0002(10) 0.0098(9) 0.0015(9)
O30 O2- 0.0154(10) 0.0157(11) 0.0171(11) 0.0008(10) 0.0071(9) -0.0005(9)
O31 O2- 0.0168(10) 0.0195(11) 0.009(1) 0.0027(10) 0.0057(8) 0.0017(9)
O32 O2- 0.0190(11) 0.0159(11) 0.0081(10) 0.0056(10) 0.0034(8) 0.0019(9)
O33 O2- 0.0152(10) 0.0125(11) 0.0161(11) 0.004(1) 0.0033(9) -0.0012(9)
O34 O2- 0.0214(11) 0.0118(11) 0.0181(11) -0.0033(10) 0.0051(9) -0.0010(9)
O35 O2- 0.0150(11) 0.0139(11) 0.0285(13) 0.0016(10) -0.0048(10) -0.004(1)
O36 O2- 0.0165(11) 0.0187(12) 0.0150(11) 0.0058(10) 0.0018(9) -0.0048(9)
O37 O2- 0.0270(12) 0.0178(12) 0.0118(11) 0.0041(11) 0.0055(9) 0.0049(9)
O38 O2- 0.0151(10) 0.0228(12) 0.0107(10) -0.0047(10) 0.0058(8) 0.0008(9)
O39 O2- 0.0225(11) 0.0139(11) 0.0118(10) -0.0057(10) 0.0034(9) 0.0017(9)
O40 O2- 0.0173(12) 0.0152(11) 0.0263(13) -0.0024(10) -0.0044(10) 0.0044(10)
N1 N3- 0.0155(12) 0.0108(12) 0.0089(12) -0.0026(11) 0.0046(10) 0.0007(10)
N2 N3- 0.0154(13) 0.0228(14) 0.0134(12) 0.0006(12) 0.0066(10) 0.0001(11)
N3 N3- 0.0141(13) 0.0102(12) 0.0141(13) 0.0008(11) -0.0001(10) -0.0021(11)
#End of TTdata_412811-ICSD