
#(C) 2019 by FIZ Karlsruhe - Leibniz Institute for Information Infrastructure.  All rights reserved.
data_412976-ICSD
_database_code_ICSD 412976
_audit_creation_date 2004-04-01
_chemical_name_systematic
'Pentacosasodium pentakis(dioxocuprate(I)) tetrakis(sulfate(VI)) sulfide'
_chemical_formula_structural 'Na25 (Cu O2)5 (S O4)4 S'
_chemical_formula_sum 'Cu5 Na25 O26 S5'
_exptl_crystal_density_diffrn 2.61
_publ_section_title

;
Reactivity, syntheses and crystal structures of Na5 (M O2) (X) with M= Co(+),
Ni(+), Cu(+); X= (C O3)(2-), (S O4)(2-), (S O3)(2-), S(2-) and Na25 (Cu O2)5
(S O4)4 (S)
;
loop_
_citation_id
_citation_journal_full
_citation_year
_citation_journal_volume
_citation_page_first
_citation_page_last
_citation_journal_id_ASTM
primary 'Zeitschrift fuer Anorganische und Allgemeine Chemie (1950) (DE)' 2003
629 1643 1650 ZAACAB
loop_
_publ_author_name
'Amann, P.'
'Moeller, A.'
_cell_length_a 9.7734(14)
_cell_length_b 4.7325(5)
_cell_length_c 20.678(2)
_cell_angle_alpha 90.
_cell_angle_beta 102.418(10)
_cell_angle_gamma 90.
_cell_volume 934.04
_cell_formula_units_Z 1
_symmetry_space_group_name_H-M 'P 1 2/m 1'
_symmetry_Int_Tables_number 10
_refine_ls_R_factor_all 0.0427
loop_
_symmetry_equiv_pos_site_id
_symmetry_equiv_pos_as_xyz
1 '-x, y, -z'
2 '-x, -y, -z'
3 'x, -y, z'
4 'x, y, z'
loop_
_atom_type_symbol
_atom_type_oxidation_number
Cu1+ 1
O2- -2
Cu1+ 1
O2- -2
Cu1+ 1
O2- -2
S2- -2
S6+ 6
O2- -2
S6+ 6
O2- -2
Na1+ 1
loop_
_atom_site_label
_atom_site_type_symbol
_atom_site_symmetry_multiplicity
_atom_site_Wyckoff_symbol
_atom_site_fract_x
_atom_site_fract_y
_atom_site_fract_z
_atom_site_B_iso_or_equiv
_atom_site_occupancy
_atom_site_attached_hydrogens
Cu1 Cu1+ 2 n 0.29389(5) 0.5 0.29824(3) 0.01661(14) 1. 0
O1 O2- 2 n 0.4720(3) 0.5 0.34418(15) 0.0182(6) 1. 0
O2 O2- 2 n 0.1122(3) 0.5 0.25785(15) 0.0190(6) 1. 0
Cu2 Cu1+ 2 n 0.44156(5) 0.5 0.10572(3) 0.02084(15) 1. 0
O3 O2- 2 n 0.2614(3) 0.5 0.06161(16) 0.0230(7) 1. 0
O4 O2- 2 n 0.6223(3) 0.5 0.14814(15) 0.0215(7) 1. 0
Cu3 Cu1+ 1 f 0 0.5 0.5 0.01520(17) 1. 0
O5 O2- 2 n 0.1646(3) 0.5 0.47331(15) 0.0176(6) 1. 0
S1 S2- 1 g 0.5 0 0.5 0.0192(3) 1. 0
S2 S6+ 4 o 0.91914(18) 0.0607(4) 0.10401(8) 0.0312(7) 0.5 0
O6 O2- 2 m 0.8981(4) 0 0.16993(18) 0.0359(9) 1. 0
O7 O2- 2 m 0.7865(6) 0 0.0580(2) 0.0579(13) 1. 0
O8 O2- 4 o 0.9312(5) 0.3698(12) 0.0981(3) 0.0361(12) 0.5 0
O9 O2- 4 o 0.0428(9) 0.0643(16) 0.0927(6) 0.107(4) 0.5 0
S3 S6+ 4 o 0.79868(14) 0.0603(3) 0.32808(7) 0.0188(5) 0.5 0
O10 O2- 2 m 0.6944(5) 0 0.2708(2) 0.0625(15) 1. 0
O11 O2- 2 m 0.7491(3) 0 0.38861(16) 0.0230(7) 1. 0
O12 O2- 2 m 0.9417(4) 0 0.3332(2) 0.0586(14) 1. 0
O13 O2- 4 o 0.8033(4) 0.3721(10) 0.3209(2) 0.0237(9) 0.5 0
Na1 Na1+ 2 m 0.64305(19) 0 0.15497(10) 0.0254(4) 1. 0
Na2 Na1+ 2 n 0.86568(19) 0.5 0.21182(10) 0.0320(5) 1. 0
Na3 Na1+ 2 n 0.57847(18) 0.5 0.25583(9) 0.0248(4) 1. 0
Na4 Na1+ 2 n 0.69380(18) 0.5 0.41614(9) 0.0245(4) 1. 0
Na5 Na1+ 2 n 0.04107(17) 0.5 0.36293(9) 0.0221(4) 1. 0
Na6 Na1+ 2 n 0.37306(17) 0.5 0.44033(8) 0.0194(4) 1. 0
Na7 Na1+ 2 m 0.19437(19) 0 0.48948(10) 0.0251(4) 1. 0
Na8 Na1+ 2 n 0.69854(19) 0.5 0.04682(9) 0.0280(4) 1. 0
Na9 Na1+ 2 n 0.1569(2) 0.5 0.15207(10) 0.0357(5) 1. 0
Na10 Na1+ 2 m 0.09211(18) 0 0.25997(9) 0.0227(4) 1. 0
Na11 Na1+ 2 m 0.2478(2) 0 0.05641(10) 0.0274(4) 1. 0
Na12 Na1+ 1 b 0 0.5 0 0.0673(13) 1. 0
Na13 Na1+ 2 m 0.49262(18) 0 0.36159(10) 0.0233(4) 1. 0
loop_
_atom_site_aniso_label
_atom_site_aniso_type_symbol
_atom_site_aniso_U_11
_atom_site_aniso_U_22
_atom_site_aniso_U_33
_atom_site_aniso_U_12
_atom_site_aniso_U_13
_atom_site_aniso_U_23
Cu1 Cu1+ 0.0135(2) 0.0182(3) 0.0177(3) 0 0.00247(18) 0
O1 O2- 0.0163(13) 0.0187(15) 0.0196(15) 0 0.0038(11) 0
O2 O2- 0.0180(13) 0.0181(15) 0.0209(15) 0 0.0039(11) 0
Cu2 Cu1+ 0.0190(3) 0.0227(3) 0.0207(3) 0 0.0040(2) 0
O3 O2- 0.0244(15) 0.0249(17) 0.0197(15) 0 0.0050(12) 0
O4 O2- 0.0225(15) 0.0210(17) 0.0218(16) 0 0.0062(12) 0
Cu3 Cu1+ 0.0126(3) 0.0168(4) 0.0168(3) 0 0.0045(3) 0
O5 O2- 0.0133(13) 0.0196(16) 0.0205(15) 0 0.0048(11) 0
S1 S2- 0.0189(6) 0.0181(7) 0.0200(7) 0 0.0026(5) 0
S2 S6+ 0.0351(8) 0.033(2) 0.0270(7) -0.0023(7) 0.0113(6) 0.0009(7)
O6 O2- 0.041(2) 0.040(2) 0.0253(18) 0 0.0052(15) 0
O7 O2- 0.079(3) 0.054(3) 0.031(2) 0 -0.010(2) 0
O8 O2- 0.035(3) 0.027(3) 0.044(3) -0.003(2) 0.003(2) 0.009(2)
O9 O2- 0.101(5) 0.040(8) 0.226(10) -0.024(4) 0.135(7) -0.032(6)
S3 S6+ 0.0212(6) 0.0175(16) 0.0189(6) -0.0007(5) 0.0071(5) 0.0004(5)
O10 O2- 0.062(3) 0.100(4) 0.020(2) 0 -0.005(2) 0
O11 O2- 0.0227(15) 0.0285(18) 0.0209(15) 0 0.0112(12) 0
O12 O2- 0.033(2) 0.094(4) 0.060(3) 0 0.033(2) 0
O13 O2- 0.023(2) 0.016(2) 0.032(2) -0.0030(17) 0.0058(18) 0.0029(19)
Na1 Na1+ 0.0278(9) 0.0203(9) 0.0276(10) 0 0.0046(7) 0
Na2 Na1+ 0.0205(9) 0.0451(13) 0.0296(10) 0 0.0034(8) 0
Na3 Na1+ 0.0228(8) 0.0336(11) 0.0188(9) 0 0.0058(7) 0
Na4 Na1+ 0.0221(8) 0.0257(10) 0.0238(9) 0 0.0010(7) 0
Na5 Na1+ 0.0181(8) 0.0295(10) 0.0184(8) 0 0.0031(6) 0
Na6 Na1+ 0.0166(8) 0.0229(9) 0.0197(8) 0 0.0062(6) 0
Na7 Na1+ 0.0267(9) 0.0167(9) 0.0329(10) 0 0.0088(8) 0
Na8 Na1+ 0.0261(9) 0.0370(12) 0.0219(9) 0 0.0071(7) 0
Na9 Na1+ 0.0268(9) 0.0620(15) 0.0199(9) 0 0.0082(8) 0
Na10 Na1+ 0.0234(8) 0.0178(9) 0.027(1) 0 0.0052(7) 0
Na11 Na1+ 0.0310(9) 0.0247(10) 0.0277(10) 0 0.0089(8) 0
Na12 Na1+ 0.047(2) 0.129(4) 0.0287(17) 0 0.0158(15) 0
Na13 Na1+ 0.0229(8) 0.0163(9) 0.0302(10) 0 0.0045(7) 0
#End of TTdata_412976-ICSD