
#(C) 2019 by FIZ Karlsruhe - Leibniz Institute for Information Infrastructure.  All rights reserved.
data_412975-ICSD
_database_code_ICSD 412975
_audit_creation_date 2004-04-01
_chemical_name_systematic 'Pentasodium cobaltate(I) carbonate'
_chemical_formula_structural 'Na5 (Co O2) (C O3)'
_chemical_formula_sum 'C1 Co1 Na5 O5'
_chemical_name_structure_type Na5CoO2CO3
_exptl_crystal_density_diffrn 2.47
_publ_section_title

;
Reactivity, syntheses and crystal structures of Na5 (M O2) (X) with M= Co(+),
Ni(+), Cu(+); X= (C O3)(2-), (S O4)(2-), (S O3)(2-), S(2-) and Na25 (Cu O2)5
(S O4)4 (S)
;
loop_
_citation_id
_citation_journal_full
_citation_year
_citation_journal_volume
_citation_page_first
_citation_page_last
_citation_journal_id_ASTM
primary 'Zeitschrift fuer Anorganische und Allgemeine Chemie (1950) (DE)' 2003
629 1643 1650 ZAACAB
loop_
_publ_author_name
'Amann, P.'
'Moeller, A.'
_cell_length_a 4.6519(11)
_cell_length_b 4.6519(11)
_cell_length_c 8.269(3)
_cell_angle_alpha 90.
_cell_angle_beta 90.
_cell_angle_gamma 90.
_cell_volume 178.94
_cell_formula_units_Z 1
_symmetry_space_group_name_H-M 'P 4/m m m'
_symmetry_Int_Tables_number 123
_refine_ls_R_factor_all 0.059
loop_
_symmetry_equiv_pos_site_id
_symmetry_equiv_pos_as_xyz
1 'y, x, -z'
2 '-y, -x, -z'
3 '-y, x, -z'
4 'y, -x, -z'
5 '-x, y, -z'
6 'x, -y, -z'
7 'x, y, -z'
8 '-x, -y, -z'
9 '-y, -x, z'
10 'y, x, z'
11 'y, -x, z'
12 '-y, x, z'
13 'x, -y, z'
14 '-x, y, z'
15 '-x, -y, z'
16 'x, y, z'
loop_
_atom_type_symbol
_atom_type_oxidation_number
Co1+ 1
Na1+ 1
C4+ 4
O2- -2
loop_
_atom_site_label
_atom_site_type_symbol
_atom_site_symmetry_multiplicity
_atom_site_Wyckoff_symbol
_atom_site_fract_x
_atom_site_fract_y
_atom_site_fract_z
_atom_site_B_iso_or_equiv
_atom_site_occupancy
_atom_site_attached_hydrogens
Co1 Co1+ 1 a 0 0 0 0.0094(7) 1. 0
Na1 Na1+ 4 i 0 0.5 0.2393(4) 0.0350(11) 1. 0
Na2 Na1+ 1 b 0 0 0.5 0.0267(15) 1. 0
C1 C4+ 1 d 0.5 0.5 0.5 0.0426(52) 1. 0
O1 O2- 2 g 0 0 0.2133(7) 0.0117(13) 1. 0
O2 O2- 4 o 0.190(4) 0.5 0.5 0.0583(41) 0.5 0
O3 O2- 2 h 0.5 0.5 0.342(3) 0.0470(47) 0.5 0
loop_
_atom_site_aniso_label
_atom_site_aniso_type_symbol
_atom_site_aniso_U_11
_atom_site_aniso_U_22
_atom_site_aniso_U_33
_atom_site_aniso_U_12
_atom_site_aniso_U_13
_atom_site_aniso_U_23
Co1 Co1+ 0.0107(7) 0.0107(7) 0.0068(9) 0 0 0
Na1 Na1+ 0.062(3) 0.0116(16) 0.0316(19) 0 0 0
Na2 Na1+ 0.035(2) 0.035(2) 0.010(3) 0 0 0
C1 C4+ 0.057(8) 0.057(8) 0.014(8) 0 0 0
O1 O2- 0.0139(19) 0.0139(19) 0.007(2) 0 0 0
O2 O2- 0.046(9) 0.059(10) 0.069(9) 0 0 0
O3 O2- 0.050(7) 0.050(7) 0.04(1) 0 0 0
#End of TTdata_412975-ICSD