
#(C) 2019 by FIZ Karlsruhe - Leibniz Institute for Information Infrastructure.  All rights reserved.
data_412977-ICSD
_database_code_ICSD 412977
_audit_creation_date 2004-04-01
_chemical_name_systematic 'Pentasodium cuprate(I) sulfide'
_chemical_formula_structural 'Na5 (Cu O2) S'
_chemical_formula_sum 'Cu1 Na5 O2 S1'
_chemical_name_structure_type Na5NiO2S
_exptl_crystal_density_diffrn 2.38
_publ_section_title

;
Reactivity, syntheses and crystal structures of Na5 (M O2) (X) with M= Co(+),
Ni(+), Cu(+); X= (C O3)(2-), (S O4)(2-), (S O3)(2-), S(2-) and Na25 (Cu O2)5
(S O4)4 (S)
;
loop_
_citation_id
_citation_journal_full
_citation_year
_citation_journal_volume
_citation_page_first
_citation_page_last
_citation_journal_id_ASTM
primary 'Zeitschrift fuer Anorganische und Allgemeine Chemie (1950) (DE)' 2003
629 1643 1650 ZAACAB
loop_
_publ_author_name
'Amann, P.'
'Moeller, A.'
_cell_length_a 4.5500(9)
_cell_length_b 4.5500(9)
_cell_length_c 8.1919(18)
_cell_angle_alpha 90.
_cell_angle_beta 90.
_cell_angle_gamma 90.
_cell_volume 169.59
_cell_formula_units_Z 1
_symmetry_space_group_name_H-M 'P 4/m m m'
_symmetry_Int_Tables_number 123
_refine_ls_R_factor_all 0.0421
loop_
_symmetry_equiv_pos_site_id
_symmetry_equiv_pos_as_xyz
1 'y, x, -z'
2 '-y, -x, -z'
3 '-y, x, -z'
4 'y, -x, -z'
5 '-x, y, -z'
6 'x, -y, -z'
7 'x, y, -z'
8 '-x, -y, -z'
9 '-y, -x, z'
10 'y, x, z'
11 'y, -x, z'
12 '-y, x, z'
13 'x, -y, z'
14 '-x, y, z'
15 '-x, -y, z'
16 'x, y, z'
loop_
_atom_type_symbol
_atom_type_oxidation_number
Cu1+ 1
O2- -2
S2- -2
Na1+ 1
loop_
_atom_site_label
_atom_site_type_symbol
_atom_site_symmetry_multiplicity
_atom_site_Wyckoff_symbol
_atom_site_fract_x
_atom_site_fract_y
_atom_site_fract_z
_atom_site_B_iso_or_equiv
_atom_site_occupancy
_atom_site_attached_hydrogens
Cu1 Cu1+ 1 a 0 0 0 0.0095(5) 1. 0
O1 O2- 2 g 0 0 0.2198(6) 0.0101(12) 1. 0
S1 S2- 1 d 0.5 0.5 0.5 0.0126(7) 1. 0
Na1 Na1+ 4 i 0.5 0 0.2622(3) 0.0215(8) 1. 0
Na2 Na1+ 1 b 0 0 0.5 0.0289(15) 1. 0
loop_
_atom_site_aniso_label
_atom_site_aniso_type_symbol
_atom_site_aniso_U_11
_atom_site_aniso_U_22
_atom_site_aniso_U_33
_atom_site_aniso_U_12
_atom_site_aniso_U_13
_atom_site_aniso_U_23
Cu1 Cu1+ 0.0114(6) 0.0114(6) 0.0058(7) 0 0 0
O1 O2- 0.0112(18) 0.0112(18) 0.008(2) 0 0 0
S1 S2- 0.0133(10) 0.0133(10) 0.0112(12) 0 0 0
Na1 Na1+ 0.0099(13) 0.0299(16) 0.0247(14) 0 0 0
Na2 Na1+ 0.039(2) 0.039(2) 0.009(2) 0 0 0
#End of TTdata_412977-ICSD