
#(C) 2019 by FIZ Karlsruhe - Leibniz Institute for Information Infrastructure.  All rights reserved.
data_413081-ICSD
_database_code_ICSD 413081
_audit_creation_date 2005-04-01
_audit_update_record 2006-04-01
_chemical_name_systematic 'Sodium trifluoromethylsulfonate - alpha'
_chemical_formula_structural 'Na (S O3 (C F3))'
_chemical_formula_sum 'C1 F3 Na1 O3 S1'
_exptl_crystal_density_diffrn 2.2
_cell_measurement_temperature 100.
_publ_section_title

;
Kristallstrukturanalyse und Natriumionenleitung von wasserfreiem
alpha-Natriumtrifluoromethylsulfonat
;
loop_
_citation_id
_citation_journal_full
_citation_year
_citation_journal_volume
_citation_page_first
_citation_page_last
_citation_journal_id_ASTM
primary 'Zeitschrift fuer Anorganische und Allgemeine Chemie (1950) (DE)' 2003
629 1431 1436 ZAACAB
loop_
_publ_author_name
'Sofina, N.'
'Peters, E.M.'
'Jansen, M.'
_cell_length_a 9.6592(11)
_cell_length_b 11.1752(12)
_cell_length_c 11.2768(12)
_cell_angle_alpha 101.878(2)
_cell_angle_beta 105.292(2)
_cell_angle_gamma 110.501(3)
_cell_volume 1038.17
_cell_formula_units_Z 8
_symmetry_space_group_name_H-M 'P -1'
_symmetry_Int_Tables_number 2
_refine_ls_R_factor_all 0.0526
loop_
_symmetry_equiv_pos_site_id
_symmetry_equiv_pos_as_xyz
1 '-x, -y, -z'
2 'x, y, z'
loop_
_atom_type_symbol
_atom_type_oxidation_number
Na1+ 1
S4+ 4
O2- -2
C4+ 4
F1- -1
loop_
_atom_site_label
_atom_site_type_symbol
_atom_site_symmetry_multiplicity
_atom_site_Wyckoff_symbol
_atom_site_fract_x
_atom_site_fract_y
_atom_site_fract_z
_atom_site_B_iso_or_equiv
_atom_site_occupancy
_atom_site_attached_hydrogens
Na1 Na1+ 2 i 0.64585(10) 0.62416(8) 0.46605(8) . 1. 0
Na2 Na1+ 2 i 0.27100(10) 0.83850(8) 0.53656(8) . 1. 0
Na3 Na1+ 1 g 0 0.5 0.5 . 1. 0
Na4 Na1+ 2 i 0.25625(10) 0.00778(8) 0.32968(8) . 1. 0
Na5 Na1+ 2 i 0.9374(2) 0.96946(19) 0.47182(19) . 0.5 0
S1 S4+ 2 i 0.49528(5) 0.82439(4) 0.35167(4) . 1. 0
S2 S4+ 2 i 0.97673(5) 0.79999(5) 0.66900(4) . 1. 0
S3 S4+ 2 i 0.44373(5) 0.69611(4) 0.66194(4) . 1. 0
S4 S4+ 2 i 0.94369(5) 0.71094(4) 0.31995(4) . 1. 0
O1 O2- 2 i 0.37022(18) 0.86120(15) 0.36362(15) . 1. 0
O2 O2- 2 i 0.47193(19) 0.69235(14) 0.35508(15) . 1. 0
O3 O2- 2 i 0.65205(17) 0.92931(14) 0.43331(14) . 1. 0
O4 O2- 2 i 0.10528(19) 0.88196(16) 0.63900(17) . 1. 0
O5 O2- 2 i 0.84529(18) 0.83592(16) 0.64057(16) . 1. 0
O6 O2- 2 i 0.9286(2) 0.65774(16) 0.62127(17) . 1. 0
O7 O2- 2 i 0.51044(17) 0.82833(14) 0.65041(14) . 1. 0
O8 O2- 2 i 0.50481(18) 0.60569(15) 0.61202(15) . 1. 0
O9 O2- 2 i 0.27428(17) 0.64043(16) 0.62121(15) . 1. 0
O10 O2- 2 i 0.03439(18) 0.85353(15) 0.34665(16) . 1. 0
O11 O2- 2 i 0.03794(17) 0.64999(15) 0.37985(14) . 1. 0
O12 O2- 2 i 0.79569(17) 0.68029(16) 0.33698(15) . 1. 0
C1 C4+ 2 i 0.4859(3) 0.8186(2) 0.18764(19) . 1. 0
C2 C4+ 2 i 0.0534(3) 0.8478(4) 0.8443(3) . 1. 0
C3 C4+ 2 i 0.5161(3) 0.7283(2) 0.8359(2) . 1. 0
C4 C4+ 2 i 0.8955(3) 0.6378(3) 0.1475(2) . 1. 0
F1 F1- 2 i 0.5985(2) 0.79183(19) 0.16361(15) . 1. 0
F2 F1- 2 i 0.5041(2) 0.93748(14) 0.17501(15) . 1. 0
F3 F1- 2 i 0.34829(19) 0.72756(18) 0.10284(14) . 1. 0
F4 F1- 2 i 0.0822(3) 0.9746(3) 0.8956(2) . 1. 0
F5 F1- 2 i 0.9519(3) 0.7730(3) 0.88472(19) . 1. 0
F6 F1- 2 i 0.1855(3) 0.8350(4) 0.8843(2) . 1. 0
F7 F1- 2 i 0.4576(2) 0.80273(19) 0.89231(15) . 1. 0
F8 F1- 2 i 0.4771(2) 0.61527(17) 0.86182(15) . 1. 0
F9 F1- 2 i 0.67176(18) 0.79473(19) 0.88417(15) . 1. 0
F10 F1- 2 i 0.0253(2) 0.6764(3) 0.12112(17) . 1. 0
F11 F1- 2 i 0.7973(2) 0.6767(3) 0.08034(16) . 1. 0
F12 F1- 2 i 0.8311(3) 0.5054(2) 0.1133(2) . 1. 0
loop_
_atom_site_aniso_label
_atom_site_aniso_type_symbol
_atom_site_aniso_U_11
_atom_site_aniso_U_22
_atom_site_aniso_U_33
_atom_site_aniso_U_12
_atom_site_aniso_U_13
_atom_site_aniso_U_23
Na1 Na1+ .0157(4) .0156(3) .0215(4) .0042(3) .0089(3) .0077(3)
Na2 Na1+ .0146(3) .0184(4) .0198(4) .0063(3) .0079(3) .0097(3)
Na3 Na1+ .0134(5) .0141(5) .0209(5) .0051(4) .0071(4) .0100(4)
Na4 Na1+ .0150(3) .0172(4) .0230(4) .0068(3) .0095(3) .0114(4)
Na5 Na1+ .0350(9) .0227(9) .0300(10) .0186(8) .0207(8) .0152(7)
S1 S4+ .01559(2) .01277(2) .01309(2) .00612(1) .00653(1) .00549(1)
S2 S4+ .01360(2) .01629(2) .01547(2) .00613(2) .00724(2) .00698(2)
S3 S4+ .01223(2) .01292(2) .01324(2) .00360(1) .00555(1) .00634(1)
S4 S4+ .01178(2) .01366(2) .01316(2) .00359(1) .00513(1) .00652(1)
O1 O2- .0201(6) .0214(6) .0209(7) .0127(5) .0122(5) .0107(5)
O2 O2- .0240(7) .0132(6) .0243(7) .0088(5) .0103(6) .0097(5)
O3 O2- .0171(6) .0168(6) .0151(6) .0040(5) .0052(5) .0059(5)
O4 O2- .0211(7) .0215(7) .0287(8) .0034(6) .0157(6) .0080(6)
O5 O2- .0173(6) .0207(7) .0300(8) .0112(6) .0080(6) .0091(6)
O6 O2- .0301(8) .0175(7) .0320(8) .0128(6) .0179(7) .0132(6)
O7 O2- .0167(6) .0137(6) .0209(6) .0051(5) .0095(5) .0089(5)
O8 O2- .0240(7) .0152(6) .0222(7) .0100(5) .0130(6) .0090(5)
O9 O2- .0112(6) .0236(7) .0230(7) .0029(5) .0046(5) .0113(6)
O10 O2- .0182(6) .0147(6) .0292(8) .0046(5) .0100(6) .0113(6)
O11 O2- .0179(6) .0178(6) .0205(6) .0091(5) .0076(5) .0113(5)
O12 O2- .0139(6) .0262(7) .0234(7) .0067(5) .0100(5) .0127(6)
C1 C4+ .0233(9) .0214(9) .0154(8) .0107(7) .0079(7) .0065(7)
C2 C4+ .0276(12) .0700(20) .0202(11) .0210(130) .0096(9) .0120(12)
C3 C4+ .0192(8) .0239(9) .0171(8) .0088(7) .0058(7) .0089(7)
C4 C4+ .0229(10) .0448(14) .0172(9) .0156(10) .0067(8) .0079(9)
F1 F1- .0389(8) .0546(10) .0244(7) .0317(8) .0215(6) .0191(7)
F2 F1- .0598(11) .0301(7) .0257(7) .0242(8) .0221(7) .0194(6)
F3 F1- .0304(8) .0430(9) .0150(6) .0019(7) .0019(5) .0019(6)
F4 F1- .0750(16) .0673(16) .0340(11) .0076(13) .0172(11) -.0200(10)
F5 F1- .0584(2) .0997(18) .0360(10) .0411(13) .0330(9) .0430(11)
F6 F1- .0466(12) .1880(30) .0333(10) .0703(18) .0110(9) .0407(15)
F7 F1- .0500(10) .0537(10) .0200(7) .0338(9) .0191(7) .0128(7)
F8 F1- .0492(10) .0347(8) .0262(7) .0133(7) .0105(7) .0226(7)
F9 F1- .0187(6) .0474(10) .0251(7) .0051(6) -.0025(5) .0078(7)
F10 F1- .0363(9) .0890(15) .0258(8) .0320(10) .0213(7) .0235(9)
F11 F1- .0481(11) .1057(18) .0202(7) .0507(12) .0092(7) .0246(9)
F12 F1- .0588(13) .0411(11) .0364(10) .0072(9) .0080(9) -.0163(8)
#End of TTdata_413081-ICSD