
#(C) 2019 by FIZ Karlsruhe - Leibniz Institute for Information Infrastructure.  All rights reserved.
data_413070-ICSD
_database_code_ICSD 413070
_audit_creation_date 2005-10-01
_chemical_name_systematic 'Sodium hydroxygallophosphate'
_chemical_formula_structural 'Na3 Ga4 P4 O20'
_chemical_formula_sum 'Ga4 Na3 O20 P4'
_exptl_crystal_density_diffrn 3.28
_publ_section_title

;
A new sodium hydroxygallophosphate containing tetrameric gallium units: Na3
[Ga4O (O H) (H2 O) (P O4)4] H2O
;
loop_
_citation_id
_citation_journal_full
_citation_year
_citation_journal_volume
_citation_page_first
_citation_page_last
_citation_journal_id_ASTM
primary 'Journal of Solid State Chemistry' 2004 177 181 188 JSSCBI
loop_
_publ_author_name
'Guesdon, A.'
'Monnin, Y.'
'Raveau, B.'
_cell_length_a 9.4554(13)
_cell_length_b 9.0282(9)
_cell_length_c 19.209(3)
_cell_angle_alpha 90.
_cell_angle_beta 102.084(12)
_cell_angle_gamma 90.
_cell_volume 1603.45
_cell_formula_units_Z 4
_symmetry_space_group_name_H-M 'P 1 21/c 1'
_symmetry_Int_Tables_number 14
_refine_ls_R_factor_all 0.035
loop_
_symmetry_equiv_pos_site_id
_symmetry_equiv_pos_as_xyz
1 'x, -y+1/2, z+1/2'
2 '-x, -y, -z'
3 '-x, y+1/2, -z+1/2'
4 'x, y, z'
loop_
_atom_type_symbol
_atom_type_oxidation_number
Ga3+ 3
P5+ 5
Na1+ 1
O1- -1.75
loop_
_atom_site_label
_atom_site_type_symbol
_atom_site_symmetry_multiplicity
_atom_site_Wyckoff_symbol
_atom_site_fract_x
_atom_site_fract_y
_atom_site_fract_z
_atom_site_B_iso_or_equiv
_atom_site_occupancy
_atom_site_attached_hydrogens
Ga1 Ga3+ 4 e .04923(5) .00907(6) .16053(3) .00689(19) 1. 0
Ga2 Ga3+ 4 e .36062(5) .22818(6) .17294(3) .00672(19) 1. 0
Ga3 Ga3+ 4 e .08857(5) .20949(6) .42840(3) .0074(2) 1. 0
Ga4 Ga3+ 4 e .76362(6) .30588(6) .42669(3) .0101(2) 1. 0
P1 P5+ 4 e .17165(13) .47737(14) .07617(6) .0083(4) 1. 0
P2 P5+ 4 e .74796(12) .02575(14) .06116(6) .0086(5) 1. 0
P3 P5+ 4 e .63029(13) .39550(14) .27503(6) .0068(4) 1. 0
P4 P5+ 4 e .14058(12) .25166(13) .27982(6) .0070(4) 1. 0
Na1 Na1+ 4 e .7028(2) .0458(3) .23507(11) .0190(10) 1. 0
Na2 Na1+ 4 e .8754(3) .3764(3) .15834(13) .0271(12) 1. 0
Na3 Na1+ 4 e .4429(5) .1238(7) .3539(3) .031(2) .699(14) 0
Na4 Na1+ 4 e .4195(10) .219(2) .3816(7) .045(8) .271(14) 0
O1 O1- 4 e .0289(3) .1792(4) .22118(17) .0102(13) 1. 0
O2 O1- 4 e .1955(3) .1145(4) .12207(17) .0101(13) 1. 0
O3 O1- 4 e .2123(3) -.0803(4) .23235(17) .0092(13) 1. 0
O4 O1- 4 e .0620(3) -.1575(4) .09351(18) .0099(13) 1. 0
O5 O1- 4 e -.0871(3) -.0927(4) .20754(17) .0097(13) 1. 0
O6 O1- 4 e -.1048(4) .0980(4) .08922(18) .0126(14) 1. 0
O7 O1- 4 e .2801(4) .4264(4) .14220(17) .0127(14) 1. 0
O8 O1- 4 e .4369(3) .2085(4) .08374(17) .0110(13) 1. 0
O9 O1- 4 e .2903(3) .2655(4) .26011(17) .0104(13) 1. 0
O10 O1- 4 e .4460(3) .0419(4) .21842(18) .0106(13) 1. 0
O11 O1- 4 e .5523(3) .3106(4) .21036(17) .0106(13) 1. 0
O12 O1- 4 e -.0307(4) .0274(4) .40369(18) .0127(14) 1. 0
O13 O1- 4 e .1453(4) .1496(4) .52270(17) .0131(15) 1. 0
O14 O1- 4 e .2372(4) .3613(4) .4572(2) .0152(15) 1. 0
O15 O1- 4 e .1665(4) .1592(4) .34939(18) .0123(14) 1. 0
O16 O1- 4 e .7617(4) .1100(4) .45784(18) .0138(15) 1. 0
O17 O1- 4 e .6284(3) .2982(4) .34234(17) .0108(13) 1. 0
O18 O1- 4 e .6779(3) .3963(4) .49039(18) .0125(14) 1. 0
O19 O1- 4 e .6486(4) .0459(4) .11285(18) .0179(16) 1. 0
O20 O1- 4 e .6292(5) .4395(5) .0761(2) .036(2) 1. 0
loop_
_atom_site_aniso_label
_atom_site_aniso_type_symbol
_atom_site_aniso_U_11
_atom_site_aniso_U_22
_atom_site_aniso_U_33
_atom_site_aniso_U_12
_atom_site_aniso_U_13
_atom_site_aniso_U_23
Ga1 Ga3+ .0071(2) .0050(2) .0086(2) -.0004(2) .00178(16) -.0009(2)
Ga2 Ga3+ .0069(2) .0052(2) .0080(2) -.00009(18) .00150(16) -.0002(2)
Ga3 Ga3+ .0095(2) .0058(2) .0069(2) .0003(2) .00157(17) .0012(2)
Ga4 Ga3+ .0105(2) .0099(2) .0100(2) -.0013(2) .00251(18) -.0001(2)
P1 P5+ .0116(5) .0061(5) .0070(5) .0021(5) .0013(4) .0005(4)
P2 P5+ .0090(5) .0086(5) .0081(5) .0022(5) .0017(4) -.0005(5)
P3 P5+ .0075(5) .0054(5) .0074(5) -.0009(4) .0016(4) -.0005(4)
P4 P5+ .0084(5) .0053(5) .0076(5) -.0004(4) .0025(4) -.0007(4)
Na1 Na1+ .0199(11) .0175(11) .0199(11) .0030(10) .0051(9) .0010(10)
Na2 Na1+ .0290(13) .0252(13) .0293(13) .0072(12) .0111(11) .0084(12)
Na3 Na1+ .026(2) .039(3) .026(2) -.013(2) -.0005(16) .014(2)
Na4 Na1+ .014(4) .085(15) .032(7) -.008(6) -.002(4) .017(9)
O1 O1- .0096(14) .0082(15) .0124(15) -.0010(13) .0017(12) -.0047(13)
O2 O1- .0119(15) .0095(16) .0090(14) -.0056(13) .0022(12) .0005(13)
O3 O1- .0068(13) .0119(16) .0088(14) -.0009(13) .0015(11) .0001(13)
O4 O1- .0086(14) .0088(15) .0125(15) -.0002(13) .0027(12) -.0037(13)
O5 O1- .0117(15) .0053(14) .0141(15) -.0014(13) .0073(12) .0005(13)
O6 O1- .0121(15) .0099(16) .0145(16) -.0003(14) -.0003(13) .0007(14)
O7 O1- .0160(16) .0086(16) .0106(15) .0038(14) -.0035(12) -.0008(13)
O8 O1- .0105(14) .0135(16) .0095(13) -.0004(14) .0032(11) -.0011(14)
O9 O1- .0095(13) .0102(15) .0120(14) -.0003(13) .0034(12) -.0009(14)
O10 O1- .0107(15) .0048(14) .0166(16) -.0002(12) .0036(12) .0024(13)
O11 O1- .0107(14) .0102(16) .0112(14) -.0039(14) .0030(12) -.0039(14)
O12 O1- .0163(16) .0075(15) .0152(16) -.0046(14) .0058(13) -.0024(14)
O13 O1- .0199(17) .0108(16) .0081(14) -.0015(15) .0019(13) .0015(14)
O14 O1- .0145(16) .0101(16) .0192(17) -.0036(14) -.0008(14) .0015(15)
O15 O1- .0158(16) .0102(16) .0128(15) .0023(14) .0070(13) .0025(14)
O16 O1- .028(2) .0049(15) .0114(15) .0021(15) .0104(14) .0001(14)
O17 O1- .0119(14) .0096(16) .0096(14) -.0029(13) -.0005(12) .0045(13)
O18 O1- .0114(15) .0149(17) .0108(15) -.0019(14) .0012(12) -.0039(14)
O19 O1- .0165(17) .026(2) .0120(16) .0094(16) .0059(13) .0045(17)
O20 O1- .045(3) .042(3) .026(2) -.020(3) .018(2) -.011(2)
#End of TTdata_413070-ICSD