
#(C) 2019 by FIZ Karlsruhe - Leibniz Institute for Information Infrastructure.  All rights reserved.
data_413005-ICSD
_database_code_ICSD 413005
_audit_creation_date 2009-02-01
_audit_update_record 2013-02-01
_chemical_name_systematic 'Disodium hexacosaoxo-decavanadate hexadecahydrate'
_chemical_formula_structural 'Na2 (V10 O26) (H2 O)16'
_chemical_formula_sum 'H32 Na2 O42 V10'
_chemical_name_structure_type Na2V10O26(H2O)16
_exptl_crystal_density_diffrn 2.49
_cell_measurement_temperature 153.
_publ_section_title

;
Inorganic/organic hybrid salts derived from polyoxovanadates and macrocyclic
(Ox N2) anions
;
loop_
_citation_id
_citation_journal_full
_citation_year
_citation_journal_volume
_citation_page_first
_citation_page_last
_citation_journal_id_ASTM
primary 'Journal of Molecular Structure' 2003 656 79 91 JMOSB4
loop_
_publ_author_name
'Wang Dongren'
'Zhang Wenjian'
'Gruening, K.'
'Rehder, D.'
_cell_length_a 8.4403(12)
_cell_length_b 10.3436(15)
_cell_length_c 11.2831(16)
_cell_angle_alpha 68.842(2)
_cell_angle_beta 87.345(2)
_cell_angle_gamma 67.101(2)
_cell_volume 841.16
_cell_formula_units_Z 1
_symmetry_space_group_name_H-M 'P -1'
_symmetry_Int_Tables_number 2
_refine_ls_R_factor_all 0.0279
loop_
_symmetry_equiv_pos_site_id
_symmetry_equiv_pos_as_xyz
1 '-x, -y, -z'
2 'x, y, z'
loop_
_atom_type_symbol
_atom_type_oxidation_number
V5+ 5
O2- -2
H1+ 1
O2- -2
H1+ 1
O2- -2
H1+ 1
O2- -2
H1+ 1
O2- -2
H1+ 1
Na1+ 1
O2- -2
H1+ 1
O2- -2
H1+ 1
loop_
_atom_site_label
_atom_site_type_symbol
_atom_site_symmetry_multiplicity
_atom_site_Wyckoff_symbol
_atom_site_fract_x
_atom_site_fract_y
_atom_site_fract_z
_atom_site_B_iso_or_equiv
_atom_site_occupancy
_atom_site_attached_hydrogens
V1 V5+ 2 i 0.12352(4) 0.21532(4) 0.50241(3) 0.00997(10) 1 0
V2 V5+ 2 i 0.19124(4) 0.50233(4) 0.47999(3) 0.00846(9) 1 0
V3 V5+ 2 i 0.02743(4) 0.49591(4) 0.73902(3) 0.00971(9) 1 0
V4 V5+ 2 i 0.33064(4) 0.21489(4) 0.72093(3) 0.01102(10) 1 0
V5 V5+ 2 i 0.02986(4) 0.79223(4) 0.23906(3) 0.01077(10) 1 0
O1 O2- 2 i 0.06716(17) 0.37616(15) 0.60460(13) 0.0098(3) 1 0
O2 O2- 2 i 0.37712(18) 0.37775(16) 0.57410(13) 0.0112(3) 1 0
O3 O2- 2 i 0.18501(18) 0.38293(15) 0.38548(13) 0.0101(3) 1 0
O4 O2- 2 i 0.10465(18) 0.62147(15) 0.58376(13) 0.0096(3) 1 0
O5 O2- 2 i 0.24052(18) 0.63214(15) 0.36031(13) 0.0108(3) 1 0
O6 O2- 2 i 0.33089(18) 0.13401(15) 0.59820(13) 0.0119(3) 1 0
O7 O2- 2 i 0.01622(18) 0.12948(15) 0.63200(13) 0.0112(3) 1 0
O8 O2- 2 i 0.15708(19) 0.11573(16) 0.41446(14) 0.0135(3) 1 0
O9 O2- 2 i 0.00755(19) 0.40036(16) 0.17558(14) 0.0134(3) 1 0
O10 O2- 2 i 0.25036(18) 0.36595(15) 0.79202(13) 0.0113(3) 1 0
O11 O2- 2 i 0.20250(19) 0.11872(15) 0.82075(14) 0.0124(3) 1 0
O12 O2- 2 i 0.52497(19) 0.11709(17) 0.78944(14) 0.0159(3) 1 0
O13 O2- 2 i 0.06140(18) 0.64094(16) 0.17315(13) 0.0117(3) 1 0
O14 O2- 2 i 0.1125(2) 0.89711(16) 0.14052(14) 0.0157(3) 1 0
O15 O2- 2 i 0.5631(2) 1.16750(19) 0.02697(16) 0.0209(4) 1 0
H1 H1+ 2 i 0.575(4) 1.190(3) -0.0406(12) 0.028(3) 1 0
H2 H1+ 2 i 0.628(4) 1.096(3) 0.061(3) 0.028(3) 1 0
O16 O2- 2 i 0.5294(2) 0.81421(19) 0.70430(17) 0.0214(3) 1 0
H3 H1+ 2 i 0.610(2) 0.777(3) 0.681(3) 0.028(3) 1 0
H4 H1+ 2 i 0.496(4) 0.8962(12) 0.674(3) 0.028(3) 1 0
O17 O2- 2 i 0.1562(2) 0.81595(18) 0.76161(18) 0.0230(4) 1 0
H5 H1+ 2 i 0.115(4) 0.8969(13) 0.725(3) 0.028(3) 1 0
H6 H1+ 2 i 0.100(3) 0.786(3) 0.744(3) 0.028(3) 1 0
O18 O2- 2 i 0.2159(3) 1.1803(2) 0.06631(18) 0.0332(4) 1 0
H7 H1+ 2 i 0.341(2) 1.175(4) 0.057(4) 0.011(3) 0.63 0
H8 H1+ 2 i 0.228(5) 1.0715(19) 0.121(3) 0.011(3) 0.63 0
H9 H1+ 2 i 0.160(3) 1.257(2) 0.110(2) 0.011(3) 0.88 0
H10 H1+ 2 i 0.152(3) 1.223(3) -0.0242(14) 0.011(3) 0.88 0
O19 O2- 2 i 0.3220(2) 0.7860(2) 0.52037(17) 0.0252(4) 1 0
H11 H1+ 2 i 0.247(3) 0.726(3) 0.559(3) 0.011(3) 0.75 0
H12 H1+ 2 i 0.237(3) 0.8941(17) 0.464(3) 0.011(3) 0.75 0
H13 H1+ 2 i 0.406(3) 0.733(3) 0.467(3) 0.011(3) 0.75 0
H14 H1+ 2 i 0.394(3) 0.787(3) 0.591(2) 0.011(3) 0.75 0
Na1 Na1+ 2 i 0.56812(11) 0.33342(9) 0.12208(8) 0.01662(19) 1 0
O20 O2- 2 i 0.2895(2) 0.51406(19) 0.01440(15) 0.0174(3) 1 0
H15 H1+ 2 i 0.228(3) 0.515(3) -0.029(2) 0.028(3) 1 0
H16 H1+ 2 i 0.237(3) 0.549(3) 0.056(2) 0.028(3) 1 0
O21 O2- 2 i 0.5153(2) 0.4980(2) 0.22919(19) 0.0250(4) 1 0
H17 H1+ 2 i 0.448(3) 0.528(3) 0.266(3) 0.028(3) 1 0
H18 H1+ 2 i 0.574(3) 0.533(3) 0.230(3) 0.028(3) 1 0
loop_
_atom_site_aniso_label
_atom_site_aniso_type_symbol
_atom_site_aniso_U_11
_atom_site_aniso_U_22
_atom_site_aniso_U_33
_atom_site_aniso_U_12
_atom_site_aniso_U_13
_atom_site_aniso_U_23
V1 V5+ 0.01199(18) 0.00751(17) 0.00818(17) -0.00166(14) -0.00006(13)
-0.00278(13)
V2 V5+ 0.00782(17) 0.00802(17) 0.00770(18) -0.00170(13) 0.00024(13) -0.00244(13)
V3 V5+ 0.01182(18) 0.00890(17) 0.00692(17) -0.00255(14) 0.00015(13) -0.00295(13)
V4 V5+ 0.00975(18) 0.00951(17) 0.00966(18) -0.00158(14) -0.00174(13)
-0.00117(13)
V5 V5+ 0.01102(18) 0.00950(17) 0.00899(18) -0.00299(14) 0.00023(13) -0.00149(13)
O1 O2- 0.0095(7) 0.0091(6) 0.0083(7) -0.0021(5) -0.0006(5) -0.0020(5)
O2 O2- 0.0099(7) 0.0111(7) 0.0102(7) -0.0028(6) -0.0001(5) -0.0029(6)
O3 O2- 0.0103(7) 0.0100(6) 0.0086(7) -0.0027(5) 0.0010(5) -0.0033(5)
O4 O2- 0.0106(7) 0.0088(6) 0.0081(7) -0.0026(5) -0.0003(5) -0.0030(5)
O5 O2- 0.0107(7) 0.0106(7) 0.0101(7) -0.0037(6) 0.0009(5) -0.0032(6)
O6 O2- 0.0118(7) 0.0096(6) 0.0109(7) -0.0015(6) -0.0001(5) -0.0030(5)
O7 O2- 0.0122(7) 0.0093(6) 0.0100(7) -0.0027(6) 0.0000(5) -0.0028(5)
O8 O2- 0.0155(7) 0.0107(7) 0.0137(7) -0.0031(6) 0.0012(6) -0.0062(6)
O9 O2- 0.0159(7) 0.0133(7) 0.0107(7) -0.0046(6) 0.0017(6) -0.0057(6)
O10 O2- 0.0118(7) 0.0118(7) 0.0092(7) -0.0038(6) -0.0001(5) -0.0035(5)
O11 O2- 0.0132(7) 0.0102(7) 0.0100(7) -0.0027(6) -0.0006(5) -0.0016(5)
O12 O2- 0.0131(7) 0.0149(7) 0.0142(7) -0.0021(6) -0.0028(6) -0.0028(6)
O13 O2- 0.0129(7) 0.0124(7) 0.0086(7) -0.0042(6) 0.0015(5) -0.0036(6)
O14 O2- 0.0174(8) 0.0149(7) 0.0125(7) -0.0065(6) 0.0013(6) -0.0025(6)
O15 O2- 0.0268(9) 0.0144(8) 0.0113(8) 0.0001(7) -0.0025(7) -0.0022(7)
O16 O2- 0.0197(9) 0.0172(8) 0.0246(9) -0.0060(7) 0.0096(7) -0.0072(7)
O17 O2- 0.0213(9) 0.0119(7) 0.0298(10) -0.0041(7) -0.0071(7) -0.0030(7)
O18 O2- 0.0405(11) 0.0263(9) 0.0243(10) -0.0049(9) 0.0003(8) -0.0090(8)
O19 O2- 0.0247(9) 0.0231(9) 0.0264(9) -0.0073(7) 0.0026(7) -0.0101(7)
Na1 Na1+ 0.0170(4) 0.0145(4) 0.0165(4) -0.0051(3) 0.0010(3) -0.0049(3)
O20 O2- 0.0135(8) 0.0230(8) 0.0135(8) -0.0038(7) 0.0012(6) -0.0083(7)
O21 O2- 0.0201(9) 0.0347(10) 0.0370(11) -0.0164(8) 0.0146(8) -0.0271(9)
#End of TTdata_413005-ICSD