
#(C) 2019 by FIZ Karlsruhe - Leibniz Institute for Information Infrastructure.  All rights reserved.
data_413270-ICSD
_database_code_ICSD 413270
_audit_creation_date 2004-10-01
_chemical_name_systematic 'Trisodium ferrate(III)'
_chemical_formula_structural 'Na3 (Fe O3)'
_chemical_formula_sum 'Fe1 Na3 O3'
_exptl_crystal_density_diffrn 2.99
_publ_section_title
'Zur Synthese von Na3 Fe O3, einem ternaeren Oxoferrat(III) mit Kettenstruktur'
loop_
_citation_id
_citation_journal_full
_citation_year
_citation_journal_volume
_citation_page_first
_citation_page_last
_citation_journal_id_ASTM
primary 'Zeitschrift fuer Anorganische und Allgemeine Chemie (1950) (DE)' 2003
629 2063 2065 ZAACAB
loop_
_publ_author_name
'Sobotka, B.M.'
'Moeller, A.'
_cell_length_a 5.7994(11)
_cell_length_b 12.659(2)
_cell_length_c 5.8283(11)
_cell_angle_alpha 90.
_cell_angle_beta 116.02(2)
_cell_angle_gamma 90.
_cell_volume 384.51
_cell_formula_units_Z 4
_symmetry_space_group_name_H-M 'P 1 21/n 1'
_symmetry_Int_Tables_number 14
_refine_ls_R_factor_all 0.0576
loop_
_symmetry_equiv_pos_site_id
_symmetry_equiv_pos_as_xyz
1 '-x+1/2, y+1/2, -z+1/2'
2 '-x, -y, -z'
3 'x+1/2, -y+1/2, z+1/2'
4 'x, y, z'
loop_
_atom_type_symbol
_atom_type_oxidation_number
Fe3+ 3
Na1+ 1
O2- -2
loop_
_atom_site_label
_atom_site_type_symbol
_atom_site_symmetry_multiplicity
_atom_site_Wyckoff_symbol
_atom_site_fract_x
_atom_site_fract_y
_atom_site_fract_z
_atom_site_B_iso_or_equiv
_atom_site_occupancy
_atom_site_attached_hydrogens
Fe1 Fe3+ 4 e 0.1771(1) 0.33505(4) 0.25798(11) 0.00433(16) 1. 0
Na1 Na1+ 4 e 0.2181(3) 0.09402(13) 0.1451(4) 0.0129(4) 1. 0
Na2 Na1+ 4 e 0.2457(3) 0.48514(13) -.2211(3) 0.0104(4) 1. 0
Na3 Na1+ 4 e 0.1435(3) 0.22242(13) 0.6979(3) 0.0120(4) 1. 0
O1 O2- 4 e 0.3745(5) 0.4366(2) 0.1950(6) 0.0088(6) 1. 0
O2 O2- 4 e 0.0060(5) 0.3731(2) 0.4500(6) 0.0087(6) 1. 0
O3 O2- 4 e -.0747(5) 0.2698(2) -.0451(6) 0.0092(6) 1. 0
loop_
_atom_site_aniso_label
_atom_site_aniso_type_symbol
_atom_site_aniso_U_11
_atom_site_aniso_U_22
_atom_site_aniso_U_33
_atom_site_aniso_U_12
_atom_site_aniso_U_13
_atom_site_aniso_U_23
Fe1 Fe3+ 0.0017(2) 0.0054(2) 0.0045(3) -.0005(2) 0.00011(18) -.0005(2)
Na1 Na1+ 0.0123(8) 0.0132(8) 0.0130(9) -.0023(6) 0.0055(7) 0.0011(7)
Na2 Na1+ 0.0078(7) 0.0108(8) 0.0094(9) -.0017(6) 0.0007(6) 0.0007(7)
Na3 Na1+ 0.0075(7) 0.0143(8) 0.0137(10) 0.0039(6) 0.0041(7) 0.0063(7)
O1 O2- 0.0087(12) 0.0067(13) 0.0110(16) -.0030(11) 0.0041(11) -.0012(12)
O2 O2- 0.0076(12) 0.0086(13) 0.0097(16) 0.0001(10) 0.0037(11) -.0015(11)
O3 O2- 0.0085(12) 0.0082(13) 0.0090(17) -.0040(11) 0.0020(11) -.0036(11)
#End of TTdata_413270-ICSD