
#(C) 2019 by FIZ Karlsruhe - Leibniz Institute for Information Infrastructure.  All rights reserved.
data_413552-ICSD
_database_code_ICSD 413552
_audit_creation_date 2006-10-01
_chemical_name_systematic 'Sodium tetratin tris(phosphate(V))'
_chemical_formula_structural 'Na Sn4 (P O4)3'
_chemical_formula_sum 'Na1 O12 P3 Sn4'
_chemical_name_structure_type NaSn4(PO4)3
_exptl_crystal_density_diffrn 4.1
_publ_section_title

;
A series of open-framework tin(II) phosphates: A (Sn4 (P O4)3) (A = Na, K,
NH4)
;
loop_
_citation_id
_citation_journal_full
_citation_year
_citation_journal_volume
_citation_page_first
_citation_page_last
_citation_journal_id_ASTM
primary 'Solid State Sciences' 2004 6 867 873 SSSCFJ
loop_
_publ_author_name
'Bontchev, R.'
'Moore, R.C.'
_cell_length_a 9.5508(13)
_cell_length_b 9.5508(13)
_cell_length_c 24.083(3)
_cell_angle_alpha 90.
_cell_angle_beta 90.
_cell_angle_gamma 120.
_cell_volume 1902.48
_cell_formula_units_Z 6
_symmetry_space_group_name_H-M 'R 3 c H'
_symmetry_Int_Tables_number 161
_refine_ls_R_factor_all 0.0241
loop_
_symmetry_equiv_pos_site_id
_symmetry_equiv_pos_as_xyz
1 '-x+y, y, z+1/2'
2 'x, x-y, z+1/2'
3 '-y, -x, z+1/2'
4 '-x+y, -x, z'
5 '-y, x-y, z'
6 'x, y, z'
7 '-x+y+2/3, y+1/3, z+5/6'
8 'x+2/3, x-y+1/3, z+5/6'
9 '-y+2/3, -x+1/3, z+5/6'
10 '-x+y+2/3, -x+1/3, z+1/3'
11 '-y+2/3, x-y+1/3, z+1/3'
12 'x+2/3, y+1/3, z+1/3'
13 '-x+y+1/3, y+2/3, z+1/6'
14 'x+1/3, x-y+2/3, z+1/6'
15 '-y+1/3, -x+2/3, z+1/6'
16 '-x+y+1/3, -x+2/3, z+2/3'
17 '-y+1/3, x-y+2/3, z+2/3'
18 'x+1/3, y+2/3, z+2/3'
loop_
_atom_type_symbol
_atom_type_oxidation_number
Sn2+ 2
P5+ 5
O2- -2
Na1+ 1
loop_
_atom_site_label
_atom_site_type_symbol
_atom_site_symmetry_multiplicity
_atom_site_Wyckoff_symbol
_atom_site_fract_x
_atom_site_fract_y
_atom_site_fract_z
_atom_site_B_iso_or_equiv
_atom_site_occupancy
_atom_site_attached_hydrogens
Sn1 Sn2+ 6 a 0.6667 0.3333 0.1433(1) 0.009(1) 1. 0
Sn2 Sn2+ 18 b 0.5911(1) 0.8624(1) 0.1088(1) 0.008(1) 1. 0
P1 P5+ 18 b 0.8785(2) 0.2180(2) 0.0696(1) 0.007(1) 1. 0
O1 O2- 18 b 0.8137(5) 0.0829(5) 0.1134(2) 0.012(1) 1. 0
O2 O2- 18 b 0.7114(5) 0.7717(5) 0.0601(2) 0.012(1) 1. 0
O3 O2- 18 b 0.6453(5) 0.4932(5) 0.0886(2) 0.013(1) 1. 0
O4 O2- 18 b 0.6900(5) 0.8152(5) 0.1804(2) 0.010(1) 1. 0
Na1 Na1+ 6 a 0.6667 0.3333 0.9955(2) 0.012(1) 1. 0
loop_
_atom_site_aniso_label
_atom_site_aniso_type_symbol
_atom_site_aniso_U_11
_atom_site_aniso_U_22
_atom_site_aniso_U_33
_atom_site_aniso_U_12
_atom_site_aniso_U_13
_atom_site_aniso_U_23
Sn1 Sn2+ 0.009(1) 0.009(1) 0.009(1) 0.004(1) 0 0
Sn2 Sn2+ 0.007(1) 0.007(1) 0.011(1) 0.004(1) -0.001(1) -0.001(1)
P1 P5+ 0.005(1) 0.007(1) 0.010(1) 0.003(1) 0.000(1) 0.001(1)
O1 O2- 0.012(2) 0.012(2) 0.011(2) 0.006(2) 0.000(1) 0.004(1)
O2 O2- 0.015(2) 0.010(2) 0.012(2) 0.008(2) -0.001(2) -0.001(1)
O3 O2- 0.009(2) 0.005(2) 0.023(2) 0.002(1) -0.002(2) 0.000(1)
O4 O2- 0.014(2) 0.012(2) 0.010(2) 0.011(2) 0.003(1) 0.000(1)
Na1 Na1+ 0.009(1) 0.009(1) 0.017(2) 0.005(1) 0 0
#End of TTdata_413552-ICSD