
#(C) 2019 by FIZ Karlsruhe - Leibniz Institute for Information Infrastructure.  All rights reserved.
data_413644-ICSD
_database_code_ICSD 413644
_audit_creation_date 2004-10-01
_chemical_name_systematic 'Disodium ruthenate(VI)'
_chemical_formula_structural 'Na2 (Ru O4)'
_chemical_formula_sum 'Na2 O4 Ru1'
_chemical_name_structure_type Na2RuO4
_exptl_crystal_density_diffrn 3.91
_publ_section_title

;
Syntheses and crystal structures of two sodium ruthenates: Na2 Ru o4 and Na2
Ru O3
;
loop_
_citation_id
_citation_journal_full
_citation_year
_citation_journal_volume
_citation_page_first
_citation_page_last
_citation_journal_id_ASTM
primary 'Zeitschrift fuer Anorganische und Allgemeine Chemie (1950) (DE)' 2004
630 547 552 ZAACAB
loop_
_publ_author_name
'Mogare, K.M.'
'Friese, K.'
'Klein, W.'
'Jansen, M.'
_cell_length_a 10.721(6)
_cell_length_b 7.033(4)
_cell_length_c 10.871(6)
_cell_angle_alpha 90.
_cell_angle_beta 119.10(4)
_cell_angle_gamma 90.
_cell_volume 716.22
_cell_formula_units_Z 8
_symmetry_space_group_name_H-M 'P 1 21/c 1'
_symmetry_Int_Tables_number 14
_refine_ls_R_factor_all 0.0766
loop_
_symmetry_equiv_pos_site_id
_symmetry_equiv_pos_as_xyz
1 'x, -y+1/2, z+1/2'
2 '-x, -y, -z'
3 '-x, y+1/2, -z+1/2'
4 'x, y, z'
loop_
_atom_type_symbol
_atom_type_oxidation_number
Ru6+ 6
Na1+ 1
O2- -2
loop_
_atom_site_label
_atom_site_type_symbol
_atom_site_symmetry_multiplicity
_atom_site_Wyckoff_symbol
_atom_site_fract_x
_atom_site_fract_y
_atom_site_fract_z
_atom_site_B_iso_or_equiv
_atom_site_occupancy
_atom_site_attached_hydrogens
Ru1 Ru6+ 4 e 0.50028(13) 0.24486(8) 0.25100(11) 0.0170(3) 1. 0
Ru2 Ru6+ 4 e 0.00056(13) 0.23202(8) 0.24864(11) 0.0165(3) 1. 0
Na1 Na1+ 4 e 0.3051(6) 0.4632(7) 0.4106(5) 0.0249(19) 1. 0
Na2 Na1+ 4 e 0.3501(6) 0.5609(7) 0.9149(5) 0.030(2) 1. 0
Na3 Na1+ 4 e 0.1875(7) 0.5152(7) 0.0879(6) 0.028(2) 1. 0
Na4 Na1+ 4 e 0.1547(7) 0.0049(7) 0.0972(6) 0.028(2) 1. 0
O1 O2- 4 e 0.1646(9) 0.1455(9) 0.3887(8) 0.025(3) 1. 0
O2 O2- 4 e 0.4818(10) 0.6489(9) 0.3897(8) 0.026(3) 1. 0
O3 O2- 4 e 0.3278(11) 0.2512(10) 0.2411(10) 0.026(3) 1. 0
O4 O2- 4 e 0.0084(10) 0.3212(10) 0.0998(8) 0.027(3) 1. 0
O5 O2- 4 e 0.1643(10) 0.7294(9) 0.2476(9) 0.024(3) 1. 0
O6 O2- 4 e 0.3404(9) 0.6789(10) 0.5977(8) 0.027(3) 1. 0
O7 O2- 4 e 0.4659(13) 0.0064(8) 0.6555(10) 0.031(4) 1. 0
O8 O2- 4 e 0.0454(10) 0.4809(8) 0.3497(8) 0.018(3) 1. 0
loop_
_atom_site_aniso_label
_atom_site_aniso_type_symbol
_atom_site_aniso_U_11
_atom_site_aniso_U_22
_atom_site_aniso_U_33
_atom_site_aniso_U_12
_atom_site_aniso_U_13
_atom_site_aniso_U_23
Ru1 Ru6+ 0.0173(5) 0.0168(3) 0.0171(4) -.0006(4) 0.0085(4) -.0004(4)
Ru2 Ru6+ 0.0161(5) 0.0167(3) 0.0170(4) 0.0010(4) 0.0084(4) 0.0005(4)
Na1 Na1+ 0.016(3) 0.035(2) 0.023(2) -.0008(18) 0.009(2) -.0021(18)
Na2 Na1+ 0.023(3) 0.039(2) 0.024(2) 0.0064(19) 0.009(2) -.002(2)
Na3 Na1+ 0.035(3) 0.028(2) 0.021(2) 0.0002(16) 0.012(2) 0.0003(18)
Na4 Na1+ 0.026(3) 0.036(2) 0.022(2) 0.0013(17) 0.012(2) 0.0018(19)
O1 O2- 0.018(4) 0.027(3) 0.021(3) 0.008(2) 0.001(3) 0.004(3)
O2 O2- 0.038(5) 0.024(3) 0.021(3) 0.005(2) 0.019(4) -.002(3)
O3 O2- 0.019(5) 0.038(4) 0.025(4) -.002(3) 0.014(4) -.002(3)
O4 O2- 0.032(5) 0.033(3) 0.021(3) 0.004(3) 0.017(3) -.001(3)
O5 O2- 0.021(5) 0.025(3) 0.026(4) 0.000(3) 0.011(4) -.002(3)
O6 O2- 0.026(4) 0.029(3) 0.026(4) -.004(3) 0.012(3) -.002(3)
O7 O2- 0.061(7) 0.007(3) 0.025(5) 0.001(2) 0.021(5) 0.000(3)
O8 O2- 0.022(4) 0.015(3) 0.015(4) -.002(2) 0.007(3) -.003(2)
#End of TTdata_413644-ICSD