
#(C) 2019 by FIZ Karlsruhe - Leibniz Institute for Information Infrastructure.  All rights reserved.
data_413635-ICSD
_database_code_ICSD 413635
_audit_creation_date 2005-04-01
_chemical_name_systematic 'Dipraseodymium sodium iridium oxide'
_chemical_formula_structural 'Pr2 Na Ir O6'
_chemical_formula_sum 'Ir1 Na1 O6 Pr2'
_chemical_name_structure_type Perovskite-Na3AlF6
_exptl_crystal_density_diffrn 7.57
_cell_measurement_temperature 294.
_publ_section_title

;
The crystal growth and characterization of the lanthanide-containing double
perovskites Ln2 Na Ir O6 (Ln= La, Pr, Nd).
;
loop_
_citation_id
_citation_journal_full
_citation_year
_citation_journal_volume
_citation_page_first
_citation_page_last
_citation_journal_id_ASTM
primary 'Solid State Sciences' 2004 6 413 417 SSSCFJ
loop_
_publ_author_name
'Davis, M.J.'
'Mugavero, S.J.'
'Glab, K.I.'
'Smith, M.D.'
'zur Loye, H.C.'
_cell_length_a 5.5322(2)
_cell_length_b 5.9341(2)
_cell_length_c 7.9412(3)
_cell_angle_alpha 90.
_cell_angle_beta 90.7930(10)
_cell_angle_gamma 90.
_cell_volume 260.67
_cell_formula_units_Z 2
_symmetry_space_group_name_H-M 'P 1 21/n 1'
_symmetry_Int_Tables_number 14
_refine_ls_R_factor_all 0.0277
loop_
_symmetry_equiv_pos_site_id
_symmetry_equiv_pos_as_xyz
1 '-x+1/2, y+1/2, -z+1/2'
2 '-x, -y, -z'
3 'x+1/2, -y+1/2, z+1/2'
4 'x, y, z'
loop_
_atom_type_symbol
_atom_type_oxidation_number
Pr3+ 3
Ir5+ 5
Na1+ 1
O2- -2
loop_
_atom_site_label
_atom_site_type_symbol
_atom_site_symmetry_multiplicity
_atom_site_Wyckoff_symbol
_atom_site_fract_x
_atom_site_fract_y
_atom_site_fract_z
_atom_site_B_iso_or_equiv
_atom_site_occupancy
_atom_site_attached_hydrogens
Pr1 Pr3+ 4 e 0.48095(5) 0.07043(5) 0.25267(3) 0.00689(8) 1 0
Ir1 Ir5+ 2 b 0.5 0.5 0. 0.00443(8) 1 0
Na1 Na1+ 2 a 0. 0. 0. 0.0060(5) 1 0
O1 O2- 4 e 0.2070(6) 0.3264(6) 0.0510(4) 0.0080(6) 1 0
O2 O2- 4 e 0.6164(7) 0.4510(6) 0.2324(5) 0.0091(6) 1 0
O3 O2- 4 e 0.3355(7) 0.7820(7) 0.0664(5) 0.0098(6) 1 0
loop_
_atom_site_aniso_label
_atom_site_aniso_type_symbol
_atom_site_aniso_U_11
_atom_site_aniso_U_22
_atom_site_aniso_U_33
_atom_site_aniso_U_12
_atom_site_aniso_U_13
_atom_site_aniso_U_23
Pr1 Pr3+ 0.00668(12) 0.00664(14) 0.00737(12) -0.00052(8) 0.00035(8) 0.00018(8)
Ir1 Ir5+ 0.00391(12) 0.00517(13) 0.00424(11) -0.00016(7) 0.00032(8) -0.00001(8)
Na1 Na1+ 0.0065(13) 0.0071(13) 0.0044(12) -0.0002(9) -0.0016(10) 0.0021(9)
O1 O2- 0.0070(14) 0.0061(16) 0.0108(15) -0.0023(11) 0.0024(12) -0.0001(12)
O2 O2- 0.0104(17) 0.0086(16) 0.0082(15) -0.0017(13) 0.0006(12) 0.0000(12)
O3 O2- 0.0098(15) 0.0088(16) 0.0108(15) 0.0022(12) -0.0013(12) -0.0028(13)
#End of TTdata_413635-ICSD