
#(C) 2019 by FIZ Karlsruhe - Leibniz Institute for Information Infrastructure.  All rights reserved.
data_413672-ICSD
_database_code_ICSD 413672
_audit_creation_date 2005-10-01
_chemical_name_systematic 'Undecasodium tetraoxocuprate tris(sulfate(VI))'
_chemical_formula_structural 'Na11 (Cu O4) (S O4)3'
_chemical_formula_sum 'Cu1 Na11 O16 S3'
_exptl_crystal_density_diffrn 2.67
_cell_measurement_temperature 170.
_publ_section_title 'Synthesis and characterization of Na11 (Cu O4) (S O4)3'
loop_
_citation_id
_citation_journal_full
_citation_year
_citation_journal_volume
_citation_page_first
_citation_page_last
_citation_journal_id_ASTM
primary 'Journal of Solid State Chemistry' 2004 177 2889 2895 JSSCBI
loop_
_publ_author_name
'Amann, P.'
'Kataev, V.'
'Moeller, A.'
_cell_length_a 16.005(3)
_cell_length_b 7.0172(8)
_cell_length_c 14.8007(16)
_cell_angle_alpha 90.
_cell_angle_beta 90.
_cell_angle_gamma 90.
_cell_volume 1662.27
_cell_formula_units_Z 4
_symmetry_space_group_name_H-M 'P n m a'
_symmetry_Int_Tables_number 62
_refine_ls_R_factor_all 0.0924
loop_
_symmetry_equiv_pos_site_id
_symmetry_equiv_pos_as_xyz
1 'x+1/2, y, -z+1/2'
2 'x, -y+1/2, z'
3 '-x+1/2, y+1/2, z+1/2'
4 '-x, -y, -z'
5 '-x+1/2, -y, z+1/2'
6 '-x, y+1/2, -z'
7 'x+1/2, -y+1/2, -z+1/2'
8 'x, y, z'
loop_
_atom_type_symbol
_atom_type_oxidation_number
Cu3+ 3
O2- -2
S6+ 6
O2- -2
S6+ 6
O2- -2
S6+ 6
O2- -2
Na1+ 1
loop_
_atom_site_label
_atom_site_type_symbol
_atom_site_symmetry_multiplicity
_atom_site_Wyckoff_symbol
_atom_site_fract_x
_atom_site_fract_y
_atom_site_fract_z
_atom_site_B_iso_or_equiv
_atom_site_occupancy
_atom_site_attached_hydrogens
Cu1 Cu3+ 4 c 0.37585(5) 0.25 0.23564(4) 0.00431(13) 1 0
O1 O2- 4 c 0.4919(2) 0.25 0.2336(2) 0.0066(8) 1 0
O2 O2- 4 c 0.2608(2) 0.25 0.2396(2) 0.0062(9) 1 0
O3 O2- 4 c 0.3781(3) 0.25 0.3620(2) 0.0081(8) 1 0
O4 O2- 4 c 0.3732(3) 0.25 0.1086(2) 0.0084(8) 1 0
S1 S6+ 4 c 0.13265(9) 0.25 0.48379(7) 0.0073(3) 1 0
O5 O2- 4 c 0.2022(3) 0.25 0.5501(3) 0.0168(10) 1 0
O6 O2- 4 c 0.0514(3) 0.25 0.5302(3) 0.0143(10) 1 0
O7 O2- 8 d 0.13816(18) 0.0785(4) 0.42550(17) 0.0103(6) 1 0
S2 S6+ 4 c 0.12661(12) 0.75 0.24287(8) 0.0065(2) 1 0
O8 O2- 4 c 0.2044(3) 0.75 0.2973(3) 0.0124(9) 1 0
O9 O2- 8 d 0.1247(2) 0.5804(4) 0.18370(18) 0.0147(6) 1 0
O10 O2- 4 c 0.0540(3) 0.75 0.3038(3) 0.0126(10) 1 0
S3 S6+ 4 c 0.38465(10) 0.75 0.47747(9) 0.0160(4) 1 0
O11 O2- 4 c 0.4005(3) 0.75 0.3790(3) 0.0246(12) 1 0
O12 O2- 8 d 0.3263(4) 0.9168(9) 0.4967(4) 0.0272(11) 0.6 0
O13 O2- 8 d 0.4389(6) 0.9179(13) 0.5084(6) 0.0272(11) 0.4 0
O14 O2- 8 d 0.4527(8) 0.781(3) 0.5345(8) 0.050(3) 0.3 0
O15 O2- 8 d 0.3057(11) 0.774(5) 0.5035(14) 0.050(3) 0.2 0
Na1 Na1+ 4 c 0.1184(2) 0.75 0.01294(15) 0.0301(7) 1 0
Na2 Na1+ 4 c 0.12737(18) 0.25 0.26342(15) 0.0141(5) 1 0
Na3 Na1+ 8 d 0.48412(10) 0.0267(3) 0.12161(10) 0.0106(4) 1 0
Na4 Na1+ 8 d 0.27598(10) 0.0214(3) 0.35254(11) 0.0108(4) 1 0
Na5 Na1+ 8 d 0.48764(10) 0.0367(3) 0.35295(10) 0.0114(4) 1 0
Na6 Na1+ 8 d 0.25760(10) 0.0388(3) 0.12255(11) 0.0116(4) 1 0
Na7 Na1+ 4 c 0.13491(19) 0.75 0.45846(14) 0.0172(6) 1 0
loop_
_atom_site_aniso_label
_atom_site_aniso_type_symbol
_atom_site_aniso_U_11
_atom_site_aniso_U_22
_atom_site_aniso_U_33
_atom_site_aniso_U_12
_atom_site_aniso_U_13
_atom_site_aniso_U_23
Cu1 Cu3+ 0.0033(2) 0.0051(3) 0.0045(3) 0. -0.0005(3) 0.
O1 O2- 0.0038(17) 0.010(2) 0.0059(14) 0. -0.0003(14) 0.
O2 O2- 0.0054(18) 0.007(2) 0.0062(17) 0. -0.0008(13) 0.
O3 O2- 0.0091(17) 0.0073(19) 0.0078(16) 0. -0.0008(15) 0.
O4 O2- 0.0095(16) 0.0092(19) 0.0065(16) 0. 0.0036(16) 0.
S1 S6+ 0.0120(6) 0.0056(6) 0.0043(6) 0. -0.0005(5) 0.
O5 O2- 0.025(2) 0.008(2) 0.017(2) 0. -0.0156(17) 0.
O6 O2- 0.016(2) 0.011(2) 0.017(2) 0. 0.0074(16) 0.
O7 O2- 0.0163(15) 0.0058(14) 0.0090(13) -0.0008(11) -0.0009(11) -0.0017(9)
S2 S6+ 0.0066(5) 0.0059(6) 0.0071(6) 0. -0.0004(5) 0.
O8 O2- 0.011(2) 0.008(2) 0.0178(19) 0. -0.0022(16) 0.
O9 O2- 0.0120(13) 0.0176(16) 0.0145(13) -0.0028(14) 0.0029(12) -0.0111(10)
O10 O2- 0.012(2) 0.016(3) 0.0093(18) 0. 0.0095(15) 0.
S3 S6+ 0.0283(9) 0.0088(8) 0.0108(7) 0. -0.0087(6) 0.
O11 O2- 0.038(3) 0.011(3) 0.024(2) 0. 0.0165(19) 0.
O12 O2- 0.053(3) 0.014(2) 0.0145(19) 0.002(2) 0.002(2) 0.0027(17)
O13 O2- 0.053(3) 0.014(2) 0.0145(19) 0.002(2) 0.002(2) 0.0027(17)
Na1 Na1+ 0.063(2) 0.0168(14) 0.0104(12) 0. 0.0046(13) 0.
Na2 Na1+ 0.0035(8) 0.0184(12) 0.0204(10) 0. 0.0023(10) 0.
Na3 Na1+ 0.0087(8) 0.0116(9) 0.0113(7) 0.0017(7) -0.0001(5) -0.0039(6)
Na4 Na1+ 0.0111(7) 0.0114(9) 0.0099(8) -0.0035(7) -0.0022(6) 0.0021(6)
Na5 Na1+ 0.0076(8) 0.0128(10) 0.0137(7) 0.0026(6) 0.0009(6) 0.0070(6)
Na6 Na1+ 0.0128(8) 0.0126(11) 0.0093(9) -0.0024(7) 0.0015(6) -0.0048(6)
Na7 Na1+ 0.0373(15) 0.0077(12) 0.0066(9) 0. 0.0017(10) 0.
#End of TTdata_413672-ICSD