
#(C) 2019 by FIZ Karlsruhe - Leibniz Institute for Information Infrastructure.  All rights reserved.
data_413921-ICSD
_database_code_ICSD 413921
_audit_creation_date 2005-10-01
_chemical_name_systematic 'Dilanthanum sodium ruthenium oxide'
_chemical_formula_structural 'La2 Na Ru O6'
_chemical_formula_sum 'La2 Na1 O6 Ru1'
_chemical_name_structure_type Perovskite-Na3AlF6
_exptl_crystal_density_diffrn 6.24
_publ_section_title

;
Synthesis and magnetic properties of the double perovskites Ln2 Na Ru O6 (Ln =
La, Pr, Nd)
;
loop_
_citation_id
_citation_journal_full
_citation_year
_citation_journal_volume
_citation_page_first
_citation_page_last
_citation_journal_id_ASTM
primary 'Journal of Solid State Chemistry' 2004 177 3560 3567 JSSCBI
loop_
_publ_author_name
'Gemmill, W.R.'
'Smith, M.D.'
'zur Loye, H.C.'
_cell_length_a 5.5903(3)
_cell_length_b 5.9241(3)
_cell_length_c 7.9990(3)
_cell_angle_alpha 90.
_cell_angle_beta 90.495(2)
_cell_angle_gamma 90.
_cell_volume 264.9
_cell_formula_units_Z 2
_symmetry_space_group_name_H-M 'P 1 21/n 1'
_symmetry_Int_Tables_number 14
_refine_ls_R_factor_all 0.0276
loop_
_symmetry_equiv_pos_site_id
_symmetry_equiv_pos_as_xyz
1 '-x+1/2, y+1/2, -z+1/2'
2 '-x, -y, -z'
3 'x+1/2, -y+1/2, z+1/2'
4 'x, y, z'
loop_
_atom_type_symbol
_atom_type_oxidation_number
La3+ 3
Na1+ 1
Ru5+ 5
O2- -2
loop_
_atom_site_label
_atom_site_type_symbol
_atom_site_symmetry_multiplicity
_atom_site_Wyckoff_symbol
_atom_site_fract_x
_atom_site_fract_y
_atom_site_fract_z
_atom_site_B_iso_or_equiv
_atom_site_occupancy
_atom_site_attached_hydrogens
La1 La3+ 4 e 0.48465(3) 0.06464(3) 0.25181(2) 0.00691(8) 1 0
Na1 Na1+ 2 a 0. 0. 0. 0.0079(3) 1 0
Ru1 Ru5+ 2 b 0.5 0.5 0. 0.00466(9) 1 0
O1 O2- 4 e 0.2134(4) 0.3239(4) 0.0470(3) 0.0086(4) 1 0
O2 O2- 4 e 0.6021(4) 0.4610(4) 0.2311(3) 0.0090(4) 1 0
O3 O2- 4 e 0.3302(4) 0.7787(4) 0.0583(3) 0.0090(4) 1 0
loop_
_atom_site_aniso_label
_atom_site_aniso_type_symbol
_atom_site_aniso_U_11
_atom_site_aniso_U_22
_atom_site_aniso_U_33
_atom_site_aniso_U_12
_atom_site_aniso_U_13
_atom_site_aniso_U_23
La1 La3+ 0.00719(10) 0.00618(11) 0.00736(10) -0.00061(5) -0.00001(6) 0.00024(5)
Na1 Na1+ 0.0078(8) 0.0083(9) 0.0077(8) -0.0004(7) -0.0001(6) 0.0003(7)
Ru1 Ru5+ 0.00446(14) 0.00425(16) 0.00528(14) -0.00013(11) 0.00010(10)
-0.00004(10)
O1 O2- 0.0081(9) 0.0068(9) 0.0110(9) -0.0032(8) 0.0017(7) -0.0008(8)
O2 O2- 0.0111(10) 0.0089(10) 0.0069(9) -0.0023(8) -0.0014(8) 0.0011(7)
O3 O2- 0.0093(9) 0.0045(9) 0.0133(10) 0.0021(8) -0.0008(7) -0.0022(8)
#End of TTdata_413921-ICSD