
#(C) 2019 by FIZ Karlsruhe - Leibniz Institute for Information Infrastructure.  All rights reserved.
data_414048-ICSD
_database_code_ICSD 414048
_audit_creation_date 2006-10-01
_chemical_name_systematic 'Disodium dicopper tetrasilicate dihydrate'
_chemical_formula_structural 'Na2 Cu2 Si4 O11 (H2 O)2'
_chemical_formula_sum 'H4 Cu2 Na2 O13 Si4'
_exptl_crystal_density_diffrn 3.05
_publ_section_title
'A novel microporous copper silicate: Na2 Cu2 Si4 O11 * 2 (H2 O)'
loop_
_citation_id
_citation_journal_full
_citation_year
_citation_journal_volume
_citation_page_first
_citation_page_last
_citation_journal_id_ASTM
primary 'Chemical Communications (Cambridge, United Kingdom)' 2005 2005 171 173
CHCOFS
loop_
_publ_author_name
'Brandao, P.'
'Almeida Paz, F.A.'
'Rocha, J.'
_cell_length_a 5.2228(7)
_cell_length_b 6.4109(9)
_cell_length_c 8.5169(12)
_cell_angle_alpha 101.107(2)
_cell_angle_beta 94.340(2)
_cell_angle_gamma 102.480(2)
_cell_volume 271.16
_cell_formula_units_Z 1
_symmetry_space_group_name_H-M 'P -1'
_symmetry_Int_Tables_number 2
_refine_ls_R_factor_all 0.0292
loop_
_symmetry_equiv_pos_site_id
_symmetry_equiv_pos_as_xyz
1 '-x, -y, -z'
2 'x, y, z'
loop_
_atom_type_symbol
_atom_type_oxidation_number
Cu2+ 2
Si4+ 4
O2- -2
Na1+ 1
O2- -2
H1+ 1
loop_
_atom_site_label
_atom_site_type_symbol
_atom_site_symmetry_multiplicity
_atom_site_Wyckoff_symbol
_atom_site_fract_x
_atom_site_fract_y
_atom_site_fract_z
_atom_site_B_iso_or_equiv
_atom_site_occupancy
_atom_site_attached_hydrogens
Cu1 Cu2+ 2 i 1.29574(7) 1.11304(6) 0.06820(4) 0.00894(13) 1 0
Si1 Si4+ 2 i 0.96324(16) 0.88020(13) 0.31186(9) 0.00738(19) 1 0
Si2 Si4+ 2 i 0.38272(15) 0.66252(13) 0.16871(9) 0.00705(19) 1 0
O1 O2- 2 i 1.0031(4) 1.0419(4) 0.1915(3) 0.0132(5) 1 0
O2 O2- 1 b 1. 1. 0.5 0.0167(7) 1 0
O3 O2- 2 i 1.1785(4) 0.7273(3) 0.3007(2) 0.0099(4) 1 0
O4 O2- 2 i 0.6730(4) 0.7108(3) 0.2753(2) 0.0111(4) 1 0
O5 O2- 2 i 0.3909(4) 0.8271(3) 0.0453(2) 0.0092(4) 1 0
O6 O2- 2 i 0.2682(4) 0.4116(3) 0.0906(3) 0.0122(5) 1 0
Na1 Na1+ 2 i 0.8611(2) 0.3640(2) 0.20223(15) 0.0156(3) 1 0
O7 O2- 2 i 0.5770(5) 0.2703(5) 0.3898(3) 0.0305(6) 1 0
H1 H1+ 2 i 0.638(8) 0.243(8) 0.475(3) 0.046 1 0
H2 H1+ 2 i 0.428(5) 0.295(8) 0.399(5) 0.046 1 0
loop_
_atom_site_aniso_label
_atom_site_aniso_type_symbol
_atom_site_aniso_U_11
_atom_site_aniso_U_22
_atom_site_aniso_U_33
_atom_site_aniso_U_12
_atom_site_aniso_U_13
_atom_site_aniso_U_23
Cu1 Cu2+ 0.0091(2) 0.0070(2) 0.0119(2) 0.00256(14) 0.00432(14) 0.00284(14)
Si1 Si4+ 0.0077(4) 0.0069(4) 0.0076(4) 0.0023(3) 0.0018(3) 0.0007(3)
Si2 Si4+ 0.0070(4) 0.0062(4) 0.0084(4) 0.0021(3) 0.0016(3) 0.0016(3)
O1 O2- 0.0139(11) 0.0134(11) 0.0171(11) 0.0062(9) 0.0078(9) 0.0089(9)
O2 O2- 0.0194(17) 0.0184(17) 0.0104(15) 0.0069(14) 0.0012(13) -0.0040(13)
O3 O2- 0.0107(11) 0.0105(11) 0.0100(10) 0.0048(8) 0.0029(8) 0.0025(8)
O4 O2- 0.0087(10) 0.0107(11) 0.0137(11) 0.0010(8) 0.0006(8) 0.0037(9)
O5 O2- 0.0095(10) 0.0094(10) 0.0102(10) 0.0033(8) 0.0030(8) 0.0037(8)
O6 O2- 0.0121(11) 0.0073(10) 0.0169(11) 0.0018(8) 0.0050(9) 0.0009(9)
Na1 Na1+ 0.0138(6) 0.0124(6) 0.0190(7) 0.0014(5) 0.0030(5) 0.0010(5)
O7 O2- 0.0231(14) 0.0521(19) 0.0228(14) 0.0123(13) 0.0045(11) 0.0191(13)
#End of TTdata_414048-ICSD