
#(C) 2019 by FIZ Karlsruhe - Leibniz Institute for Information Infrastructure.  All rights reserved.
data_414454-ICSD
_database_code_ICSD 414454
_audit_creation_date 2005-10-01
_chemical_name_systematic 'Sodium molybdoantimonate'
_chemical_formula_structural 'Mo5 Na4 O35 Sb12'
_chemical_formula_sum 'Mo5 Na4 O35 Sb12'
_exptl_crystal_density_diffrn 4.86
_publ_section_title

;
Synthesis and characteristics of a new three-dimensional molybdoantimonate
Na4Sb12Mo5O35
;
loop_
_citation_id
_citation_journal_full
_citation_year
_citation_journal_volume
_citation_page_first
_citation_page_last
_citation_journal_id_ASTM
primary 'Journal of Solid State Chemistry' 2005 178 902 907 JSSCBI
loop_
_publ_author_name
'Wang, Y.'
'Zhang, H.'
'Sun, R.'
'Huang, C.'
'Yu, X.'
_cell_length_a 11.574(2)
_cell_length_b 12.594(3)
_cell_length_c 13.277(3)
_cell_angle_alpha 94.59(3)
_cell_angle_beta 112.68(3)
_cell_angle_gamma 92.97(3)
_cell_volume 1772.71
_cell_formula_units_Z 2
_symmetry_space_group_name_H-M 'P -1'
_symmetry_Int_Tables_number 2
_refine_ls_R_factor_all 0.0329
loop_
_symmetry_equiv_pos_site_id
_symmetry_equiv_pos_as_xyz
1 '-x, -y, -z'
2 'x, y, z'
loop_
_atom_type_symbol
_atom_type_oxidation_number
Sb3+ 3
Mo6+ 6
O2- -2
Na1+ 1
loop_
_atom_site_label
_atom_site_type_symbol
_atom_site_symmetry_multiplicity
_atom_site_Wyckoff_symbol
_atom_site_fract_x
_atom_site_fract_y
_atom_site_fract_z
_atom_site_B_iso_or_equiv
_atom_site_occupancy
_atom_site_attached_hydrogens
Sb1 Sb3+ 2 i 0.54084(4) 0.45523(3) 0.32725(3) 0.01209(10) 1 0
Sb2 Sb3+ 2 i 0.22816(4) 0.78084(3) -0.46657(3) 0.01303(10) 1 0
Sb3 Sb3+ 2 i 0.43476(4) 0.87862(3) 0.05808(3) 0.01439(11) 1 0
Sb4 Sb3+ 2 i 0.07848(4) 1.23697(3) -0.52004(3) 0.01441(11) 1 0
Sb5 Sb3+ 2 i 0.11290(4) 0.86678(3) 0.05079(3) 0.01287(10) 1 0
Sb6 Sb3+ 2 i -0.12061(4) 0.80356(3) -0.22821(3) 0.01455(11) 1 0
Sb7 Sb3+ 2 i 0.65496(4) 0.67048(3) 0.20180(4) 0.01422(11) 1 0
Sb8 Sb3+ 2 i -0.22970(4) 0.53187(3) -0.33186(3) 0.01500(11) 1 0
Sb9 Sb3+ 2 i 0.47211(4) 0.80576(3) -0.20139(3) 0.01343(11) 1 0
Sb10 Sb3+ 2 i -0.03801(4) 0.32865(3) -0.20902(3) 0.01450(11) 1 0
Sb11 Sb3+ 2 i 0.26553(4) 0.41016(3) 0.01936(3) 0.01415(11) 1 0
Sb12 Sb3+ 2 i 0.35646(18) 0.66844(11) 0.17817(14) 0.0180(3) 0.88 0
Sb13 Sb3+ 2 i 0.3612(12) 0.6417(8) 0.1953(10) 0.0162(18) 0.12 0
Mo1 Mo6+ 2 i 0.33233(5) 1.07058(4) -0.39342(4) 0.01117(12) 1 0
Mo2 Mo6+ 2 i 0.36990(5) 0.94170(4) -0.61251(4) 0.01182(12) 1 0
Mo3 Mo6+ 2 i 0.55008(5) 0.74682(4) -0.49037(4) 0.01190(12) 1 0
Mo4 Mo6+ 2 i 0.11782(5) 0.55366(4) -0.32112(5) 0.01401(12) 1 0
Mo5 Mo6+ 2 i 0.79793(5) 0.89898(4) 0.08213(5) 0.01489(13) 1 0
O1 O2- 2 i 0.0513(4) 0.8154(4) -0.1040(4) 0.0179(9) 1 0
O2 O2- 2 i -0.0724(6) 1.3550(4) -0.5755(4) 0.0300(12) 1 0
O3 O2- 2 i 0.0807(5) 0.7245(4) 0.0901(4) 0.0233(11) 1 0
O4 O2- 2 i 0.5278(4) 0.3490(3) 0.2013(4) 0.0166(9) 1 0
O5 O2- 2 i 0.2809(6) 0.9837(4) -0.0429(5) 0.0356(14) 1 0
O6 O2- 2 i 0.1763(5) 0.6284(4) -0.1930(4) 0.0222(10) 1 0
O7 O2- 2 i 0.4662(5) 0.9670(4) -0.6870(4) 0.0190(10) 1 0
O8 O2- 2 i 0.6908(6) 0.7907(4) 0.0713(5) 0.0366(14) 1 0
O9 O2- 2 i -0.0114(6) 0.4658(4) -0.3361(5) 0.0314(12) 1 0
O10 O2- 2 i 0.8716(6) 0.8636(5) -0.0059(5) 0.0397(14) 1 0
O11 O2- 2 i 0.4987(5) 0.6175(4) -0.5516(4) 0.0235(10) 1 0
O12 O2- 2 i 0.7646(5) 0.5214(4) 0.3319(5) 0.0346(13) 1 0
O13 O2- 2 i 0.4191(4) 1.0772(3) -0.5185(4) 0.0135(9) 1 0
O14 O2- 2 i 0.6033(5) 0.7911(4) -0.6257(4) 0.0187(9) 1 0
O15 O2- 2 i 0.1688(4) 1.0921(3) -0.4765(4) 0.0188(9) 1 0
O16 O2- 2 i 0.2834(4) 0.8106(4) 0.0727(4) 0.0191(10) 1 0
O17 O2- 2 i 0.2197(5) 0.9516(4) -0.7021(4) 0.0246(11) 1 0
O18 O2- 2 i 0.0281(4) 1.1779(4) -0.6743(4) 0.0192(10) 1 0
O19 O2- 2 i -0.1135(5) 0.6482(4) -0.2294(5) 0.0258(12) 1 0
O20 O2- 2 i 0.1041(5) 0.4211(4) -0.1027(5) 0.0332(14) 1 0
O21 O2- 2 i 0.3987(5) 0.8043(3) -0.0866(4) 0.0163(9) 1 0
O22 O2- 2 i 0.7117(4) 0.7386(4) -0.4141(4) 0.0214(10) 1 0
O23 O2- 2 i 0.6341(5) 0.5735(3) 0.0710(4) 0.0181(9) 1 0
O24 O2- 2 i 0.5235(4) 0.5730(3) 0.2275(4) 0.0130(8) 1 0
O25 O2- 2 i 0.3086(4) 0.9260(3) -0.4750(4) 0.0156(9) 1 0
O26 O2- 2 i 0.2796(4) 0.5678(3) 0.0435(4) 0.0169(9) 1 0
O27 O2- 2 i 0.4891(4) 0.7327(3) 0.1236(4) 0.0141(9) 1 0
O28 O2- 2 i 0.2968(4) 0.8043(4) -0.3065(4) 0.0186(10) 1 0
O29 O2- 2 i 0.9106(7) 0.9194(6) 0.2115(5) 0.0555(19) 1 0
O30 O2- 2 i 0.3808(4) 0.7998(3) -0.6035(4) 0.0176(9) 1 0
O31 O2- 2 i 0.0681(4) 0.8467(3) -0.4883(4) 0.0164(9) 1 0
O32 O2- 2 i 0.3249(5) 1.0501(4) -0.2714(4) 0.0243(11) 1 0
O33 O2- 2 i -0.1604(5) 0.4328(4) -0.2195(4) 0.0215(10) 1 0
O34 O2- 2 i 0.3555(5) 0.4489(4) 0.2689(4) 0.0256(11) 1 0
O35 O2- 2 i 0.4898(5) 0.7551(4) -0.3856(4) 0.0218(10) 1 0
Na1 Na1+ 2 i 0.6040(3) 0.3864(2) 0.0668(2) 0.0197(6) 1 0
Na2 Na1+ 2 i 0.1840(3) 0.8245(2) -0.1966(2) 0.0195(6) 1 0
Na3 Na1+ 2 i 0.9966(10) 0.9834(8) 0.3907(8) 0.036(2) 0.5 0
Na4 Na1+ 2 i 1.0461(9) 0.9732(8) 0.3759(8) 0.030(2) 0.5 0
Na5 Na1+ 2 i 0.0684(3) 0.6133(2) -0.0761(2) 0.0242(6) 1 0
loop_
_atom_site_aniso_label
_atom_site_aniso_type_symbol
_atom_site_aniso_U_11
_atom_site_aniso_U_22
_atom_site_aniso_U_33
_atom_site_aniso_U_12
_atom_site_aniso_U_13
_atom_site_aniso_U_23
Sb1 Sb3+ 0.0132(2) 0.01270(19) 0.01069(19) 0.00320(15) 0.00450(16) 0.00247(14)
Sb2 Sb3+ 0.0152(2) 0.01245(19) 0.0119(2) 0.00236(15) 0.00543(17) 0.00229(14)
Sb3 Sb3+ 0.0164(2) 0.01215(19) 0.0133(2) -0.00045(15) 0.00494(17) -0.00059(15)
Sb4 Sb3+ 0.0148(2) 0.0149(2) 0.0117(2) -0.00137(15) 0.00348(17) 0.00160(14)
Sb5 Sb3+ 0.0158(2) 0.01160(19) 0.0119(2) 0.00362(15) 0.00587(17) 0.00192(14)
Sb6 Sb3+ 0.0136(2) 0.0169(2) 0.0145(2) 0.00467(16) 0.00616(17) 0.00442(15)
Sb7 Sb3+ 0.0112(2) 0.0143(2) 0.0152(2) 0.00173(15) 0.00363(17) -0.00166(15)
Sb8 Sb3+ 0.0135(2) 0.0175(2) 0.0148(2) 0.00157(16) 0.00581(17) 0.00428(16)
Sb9 Sb3+ 0.0133(2) 0.01141(19) 0.0148(2) 0.00067(15) 0.00471(17) 0.00147(14)
Sb10 Sb3+ 0.0140(2) 0.01551(19) 0.0141(2) 0.00112(15) 0.00557(17) 0.00190(15)
Sb11 Sb3+ 0.0140(2) 0.0163(2) 0.0126(2) 0.00164(15) 0.00535(17) 0.00309(15)
Sb12 Sb3+ 0.0190(5) 0.0217(6) 0.0141(5) -0.0056(4) 0.0095(4) -0.0050(4)
Sb13 Sb3+ 0.007(2) 0.025(5) 0.013(4) 0.011(3) 0.000(2) -0.006(3)
Mo1 Mo6+ 0.0122(3) 0.0113(2) 0.0110(2) 0.00270(18) 0.0055(2) 0.00068(17)
Mo2 Mo6+ 0.0137(3) 0.0109(2) 0.0105(2) 0.00120(18) 0.0045(2) 0.00001(18)
Mo3 Mo6+ 0.0130(3) 0.0095(2) 0.0138(2) 0.00197(18) 0.0056(2) 0.00192(18)
Mo4 Mo6+ 0.0123(3) 0.0144(2) 0.0160(3) 0.00330(19) 0.0054(2) 0.00422(19)
Mo5 Mo6+ 0.0130(3) 0.0129(2) 0.0189(3) 0.0019(2) 0.0060(2) 0.0038(2)
O1 O2- 0.010(2) 0.029(2) 0.012(2) 0.0038(18) 0.0006(18) 0.0047(18)
O2 O2- 0.049(4) 0.018(2) 0.023(3) 0.012(2) 0.011(3) 0.0104(19)
O3 O2- 0.040(3) 0.015(2) 0.020(2) 0.003(2) 0.018(2) 0.0050(18)
O4 O2- 0.022(2) 0.016(2) 0.016(2) 0.0056(17) 0.0110(19) 0.0036(16)
O5 O2- 0.045(4) 0.019(2) 0.049(4) 0.015(2) 0.023(3) 0.010(2)
O6 O2- 0.020(2) 0.025(2) 0.019(2) -0.0018(19) 0.005(2) 0.0003(19)
O7 O2- 0.021(2) 0.020(2) 0.019(2) 0.0043(18) 0.011(2) 0.0073(18)
O8 O2- 0.051(4) 0.017(2) 0.052(4) -0.010(2) 0.034(3) -0.004(2)
O9 O2- 0.035(3) 0.031(3) 0.030(3) -0.006(2) 0.018(3) -0.002(2)
O10 O2- 0.038(4) 0.051(4) 0.044(4) 0.012(3) 0.031(3) 0.002(3)
O11 O2- 0.032(3) 0.014(2) 0.028(3) 0.0035(19) 0.015(2) 0.0009(18)
O12 O2- 0.021(3) 0.026(3) 0.060(4) 0.009(2) 0.019(3) 0.000(3)
O13 O2- 0.018(2) 0.0067(17) 0.017(2) 0.0034(15) 0.0080(19) 0.0014(15)
O14 O2- 0.023(2) 0.020(2) 0.014(2) 0.0022(18) 0.0085(19) 0.0019(17)
O15 O2- 0.013(2) 0.017(2) 0.025(2) 0.0038(17) 0.006(2) 0.0024(18)
O16 O2- 0.015(2) 0.019(2) 0.028(3) 0.0057(17) 0.012(2) 0.0114(19)
O17 O2- 0.019(2) 0.031(3) 0.016(2) 0.004(2) -0.003(2) 0.0049(19)
O18 O2- 0.017(2) 0.030(2) 0.012(2) -0.0032(19) 0.0065(19) 0.0052(18)
O19 O2- 0.015(2) 0.016(2) 0.038(3) -0.0018(18) 0.000(2) 0.012(2)
O20 O2- 0.023(3) 0.024(2) 0.035(3) -0.006(2) -0.008(2) 0.011(2)
O21 O2- 0.025(2) 0.015(2) 0.010(2) 0.0024(18) 0.0089(19) 0.0004(16)
O22 O2- 0.014(2) 0.028(2) 0.020(2) 0.0048(19) 0.004(2) 0.0048(19)
O23 O2- 0.023(2) 0.015(2) 0.022(2) 0.0015(18) 0.015(2) -0.0013(17)
O24 O2- 0.013(2) 0.0111(18) 0.015(2) 0.0040(15) 0.0055(17) 0.0011(15)
O25 O2- 0.022(2) 0.0129(19) 0.016(2) -0.0023(17) 0.0130(19) 0.0001(16)
O26 O2- 0.019(2) 0.017(2) 0.015(2) 0.0016(17) 0.0076(19) -0.0015(16)
O27 O2- 0.015(2) 0.0143(19) 0.016(2) 0.0026(16) 0.0078(18) 0.0065(16)
O28 O2- 0.018(2) 0.026(2) 0.012(2) 0.0040(18) 0.0034(19) 0.0091(18)
O29 O2- 0.040(4) 0.081(5) 0.026(3) 0.007(4) -0.007(3) -0.002(3)
O30 O2- 0.015(2) 0.018(2) 0.019(2) -0.0022(17) 0.0062(19) -0.0010(17)
O31 O2- 0.009(2) 0.021(2) 0.023(2) 0.0046(16) 0.0085(19) 0.0063(18)
O32 O2- 0.027(3) 0.032(3) 0.015(2) 0.002(2) 0.011(2) -0.0007(19)
O33 O2- 0.022(2) 0.024(2) 0.028(3) 0.0117(19) 0.015(2) 0.016(2)
O34 O2- 0.011(2) 0.047(3) 0.015(2) 0.002(2) 0.0026(19) -0.009(2)
O35 O2- 0.026(3) 0.023(2) 0.020(2) 0.004(2) 0.012(2) 0.0020(18)
Na1 Na1+ 0.0240(15) 0.0159(12) 0.0217(14) 0.0024(11) 0.0115(12) 0.0021(10)
Na2 Na1+ 0.0125(12) 0.0309(15) 0.0160(13) 0.0027(11) 0.0075(11) -0.0018(11)
Na3 Na1+ 0.054(7) 0.016(3) 0.023(4) -0.003(4) 0.000(4) 0.001(3)
Na4 Na1+ 0.038(5) 0.025(4) 0.019(4) 0.000(4) 0.002(4) 0.005(3)
Na5 Na1+ 0.0261(16) 0.0246(14) 0.0231(14) 0.0084(12) 0.0100(13) 0.0033(11)
#End of TTdata_414454-ICSD