
#(C) 2019 by FIZ Karlsruhe - Leibniz Institute for Information Infrastructure.  All rights reserved.
data_415217-ICSD
_database_code_ICSD 415217
_audit_creation_date 2005-10-01
_chemical_name_systematic '\b-Trisodium trithio monooxo vanadate(V)'
_chemical_formula_structural 'Na3 (V S3 O)'
_chemical_formula_sum 'Na3 O1 S3 V1'
_chemical_name_structure_type Na3POS3
_exptl_crystal_density_diffrn 2.26
_publ_section_title

;
Gemischte Thio/Oxo-Orthovanadate Na3[VSxO4-x] (x=2, 3): Darstellung -
Strukturen - Eigenschaften
;
loop_
_citation_id
_citation_journal_full
_citation_year
_citation_journal_volume
_citation_page_first
_citation_page_last
_citation_journal_id_ASTM
primary 'Zeitschrift fuer Naturforschung, B: A Journal of Chemical Sciences'
2005 60 479 490 ZNBSEN
loop_
_publ_author_name
'Schnabel, S.'
'Roehr, C.'
_cell_length_a 9.684(4)
_cell_length_b 11.946(4)
_cell_length_c 5.905(2)
_cell_angle_alpha 90.
_cell_angle_beta 90.
_cell_angle_gamma 90.
_cell_volume 683.12
_cell_formula_units_Z 4
_symmetry_space_group_name_H-M 'C m c 21'
_symmetry_Int_Tables_number 36
_refine_ls_R_factor_all 0.0345
loop_
_symmetry_equiv_pos_site_id
_symmetry_equiv_pos_as_xyz
1 'x, -y, z+1/2'
2 '-x, -y, z+1/2'
3 '-x, y, z'
4 'x, y, z'
5 'x+1/2, -y+1/2, z+1/2'
6 '-x+1/2, -y+1/2, z+1/2'
7 '-x+1/2, y+1/2, z'
8 'x+1/2, y+1/2, z'
loop_
_atom_type_symbol
_atom_type_oxidation_number
V5+ 5
S2- -2
O2- -2
Na1+ 1
loop_
_atom_site_label
_atom_site_type_symbol
_atom_site_symmetry_multiplicity
_atom_site_Wyckoff_symbol
_atom_site_fract_x
_atom_site_fract_y
_atom_site_fract_z
_atom_site_B_iso_or_equiv
_atom_site_occupancy
_atom_site_attached_hydrogens
V1 V5+ 4 a 0. 0.29633(6) 0.11490(18) 0.01395(19) 1 0
S1 S2- 8 b 0.18910(10) 0.37589(7) -0.00008(13) 0.0209(2) 1 0
S2 S2- 4 a 0. 0.11853(10) 0.0187(2) 0.0184(3) 1 0
O1 O2- 4 a 0. 0.3010(3) 0.3966(6) 0.0174(8) 1 0
Na1 Na1+ 8 b 0.29363(14) 0.11998(12) 0.0170(2) 0.0257(3) 1 0
Na2 Na1+ 4 a 0. 0.11808(17) 0.5374(4) 0.0249(5) 1 0
loop_
_atom_site_aniso_label
_atom_site_aniso_type_symbol
_atom_site_aniso_U_11
_atom_site_aniso_U_22
_atom_site_aniso_U_33
_atom_site_aniso_U_12
_atom_site_aniso_U_13
_atom_site_aniso_U_23
V1 V5+ 0.0154(3) 0.0158(4) 0.0107(4) 0. 0. -0.0003(4)
S1 S2- 0.0210(4) 0.0225(4) 0.0194(5) -0.0053(4) 0.0029(4) 0.0009(4)
S2 S2- 0.0194(6) 0.0151(5) 0.0207(6) 0. 0. -0.0022(5)
O1 O2- 0.0187(18) 0.022(2) 0.0111(17) 0. 0. -0.0002(13)
Na1 Na1+ 0.0227(8) 0.0319(8) 0.0225(8) -0.0038(6) 0.0030(8) 0.0001(7)
Na2 Na1+ 0.0336(12) 0.0210(10) 0.0200(11) 0. 0. 0.0042(8)
#End of TTdata_415217-ICSD