
#(C) 2019 by FIZ Karlsruhe - Leibniz Institute for Information Infrastructure.  All rights reserved.
data_415349-ICSD
_database_code_ICSD 415349
_audit_creation_date 2006-10-01
_chemical_name_systematic 'Sodium cuprate'
_chemical_formula_structural 'Na8 Cu5 O10'
_chemical_formula_sum 'Cu5 Na8 O10'
_exptl_crystal_density_diffrn 3.62
_publ_section_title

;
Synthesis, structure and properties of new chain cuprates, Na3 Cu2 O4 and Na8
Cu5 O10
;
loop_
_citation_id
_citation_journal_full
_citation_year
_citation_journal_volume
_citation_page_first
_citation_page_last
_citation_journal_id_ASTM
primary 'Journal of Solid State Chemistry' 2005 178 3708 3714 JSSCBI
loop_
_publ_author_name
'Sofin, M.'
'Peters, E.M.'
'Jansen, M.'
_cell_length_a 8.228(1)
_cell_length_b 13.929(2)
_cell_length_c 5.707(1)
_cell_angle_alpha 90.
_cell_angle_beta 111.718(2)
_cell_angle_gamma 90.
_cell_volume 607.64
_cell_formula_units_Z 2
_symmetry_space_group_name_H-M 'C 1 m 1'
_symmetry_Int_Tables_number 8
_refine_ls_R_factor_all 0.0349
loop_
_symmetry_equiv_pos_site_id
_symmetry_equiv_pos_as_xyz
1 'x, -y, z'
2 'x, y, z'
3 'x+1/2, -y+1/2, z'
4 'x+1/2, y+1/2, z'
loop_
_atom_type_symbol
_atom_type_oxidation_number
Cu2+ 2.4
Na1+ 1
O2- -2
loop_
_atom_site_label
_atom_site_type_symbol
_atom_site_symmetry_multiplicity
_atom_site_Wyckoff_symbol
_atom_site_fract_x
_atom_site_fract_y
_atom_site_fract_z
_atom_site_B_iso_or_equiv
_atom_site_occupancy
_atom_site_attached_hydrogens
Cu1 Cu2+ 4 b 0.27221(4) 0.90109(3) 0.22154(5) 0.01154(14) 1 0
Cu2 Cu2+ 4 b 0.28331(6) 0.69890(4) 0.25011(10) 0.00936(8) 1 0
Cu3 Cu2+ 2 a 0.30137(7) 0.5 0.27560(10) 0.01021(17) 1 0
Na1 Na1+ 4 b 0.1550(3) 0.88978(9) 0.6399(5) 0.0153(4) 1 0
Na2 Na1+ 2 a 0.9095(4) 1. 0.8487(6) 0.0150(5) 1 0
Na3 Na1+ 4 b 0.9261(3) 0.77903(13) 0.8569(4) 0.0221(4) 1 0
Na4 Na1+ 4 b 0.5984(3) 0.8606(2) 0.6049(5) 0.0508(7) 1 0
Na5 Na1+ 2 a 0.4759(3) 1. -0.0987(5) 0.0257(4) 1 0
O1 O2- 2 a 0.2175(8) 1. -0.0304(10) 0.0131(9) 1 0
O2 O2- 2 a 0.3367(8) 1. 0.4723(12) 0.0194(11) 1 0
O3 O2- 4 b 0.2406(8) 0.59935(17) 0.0193(10) 0.0179(9) 1 0
O4 O2- 4 b 0.3210(6) 0.80086(19) 0.4698(9) 0.0172(8) 1 0
O5 O2- 4 b 0.2241(7) 0.7924(2) -0.0047(8) 0.0188(9) 1 0
O6 O2- 4 b 0.3467(6) 0.60712(18) 0.5059(8) 0.0113(7) 1 0
loop_
_atom_site_aniso_label
_atom_site_aniso_type_symbol
_atom_site_aniso_U_11
_atom_site_aniso_U_22
_atom_site_aniso_U_33
_atom_site_aniso_U_12
_atom_site_aniso_U_13
_atom_site_aniso_U_23
Cu1 Cu2+ 0.0140(3) 0.0116(2) 0.0092(3) 0.00224(12) 0.0045(2) 0.00184(12)
Cu2 Cu2+ 0.01082(13) 0.00986(13) 0.00722(13) 0.00137(8) 0.00311(10) 0.00134(8)
Cu3 Cu2+ 0.0110(4) 0.0118(2) 0.0069(4) 0. 0.0021(3) 0.
Na1 Na1+ 0.0130(8) 0.0169(7) 0.0163(11) 0.0008(5) 0.0060(7) -0.0005(5)
Na2 Na1+ 0.0188(11) 0.0159(9) 0.0112(12) 0. 0.0066(9) 0.
Na3 Na1+ 0.0264(8) 0.0266(7) 0.0138(7) -0.0099(6) 0.0080(6) -0.0014(6)
Na4 Na1+ 0.0310(9) 0.1022(18) 0.0231(8) -0.0402(12) 0.0144(8) -0.0255(12)
Na5 Na1+ 0.0129(8) 0.0438(12) 0.0182(9) 0. 0.0031(6) 0.
O1 O2- 0.018(2) 0.0114(18) 0.011(2) 0. 0.0063(18) 0.
O2 O2- 0.031(2) 0.015(2) 0.010(2) 0. 0.0050(18) 0.
O3 O2- 0.031(2) 0.0106(17) 0.0110(17) -0.0028(9) 0.0064(15) -0.0010(9)
O4 O2- 0.0205(15) 0.0212(19) 0.0093(13) 0.0078(9) 0.0049(11) 0.0026(9)
O5 O2- 0.0239(18) 0.0224(17) 0.0109(14) 0.0077(10) 0.0073(13) 0.0056(11)
O6 O2- 0.0139(16) 0.0100(14) 0.0088(15) -0.0006(8) 0.0029(13) -0.0001(8)
#End of TTdata_415349-ICSD