
#(C) 2019 by FIZ Karlsruhe - Leibniz Institute for Information Infrastructure.  All rights reserved.
data_415348-ICSD
_database_code_ICSD 415348
_audit_creation_date 2006-10-01
_chemical_name_systematic 'Sodium cuprate'
_chemical_formula_structural 'Na3 Cu2 O4'
_chemical_formula_sum 'Cu2 Na3 O4'
_exptl_crystal_density_diffrn 3.6
_publ_section_title

;
Synthesis, structure and properties of new chain cuprates, Na3 Cu2 O4 and Na8
Cu5 O10
;
loop_
_citation_id
_citation_journal_full
_citation_year
_citation_journal_volume
_citation_page_first
_citation_page_last
_citation_journal_id_ASTM
primary 'Journal of Solid State Chemistry' 2005 178 3708 3714 JSSCBI
loop_
_publ_author_name
'Sofin, M.'
'Peters, E.M.'
'Jansen, M.'
_cell_length_a 5.7046(2)
_cell_length_b 11.0591(4)
_cell_length_c 8.0261(3)
_cell_angle_alpha 90.
_cell_angle_beta 108.389(1)
_cell_angle_gamma 90.
_cell_volume 480.49
_cell_formula_units_Z 4
_symmetry_space_group_name_H-M 'P 1 21/n 1'
_symmetry_Int_Tables_number 14
_refine_ls_R_factor_all 0.0813
loop_
_symmetry_equiv_pos_site_id
_symmetry_equiv_pos_as_xyz
1 '-x+1/2, y+1/2, -z+1/2'
2 '-x, -y, -z'
3 'x+1/2, -y+1/2, z+1/2'
4 'x, y, z'
loop_
_atom_type_symbol
_atom_type_oxidation_number
Cu2+ 2.5
Na1+ 1
O2- -2
loop_
_atom_site_label
_atom_site_type_symbol
_atom_site_symmetry_multiplicity
_atom_site_Wyckoff_symbol
_atom_site_fract_x
_atom_site_fract_y
_atom_site_fract_z
_atom_site_B_iso_or_equiv
_atom_site_occupancy
_atom_site_attached_hydrogens
Cu1 Cu2+ 4 e 0.24258(8) 0.42473(4) 0.77268(6) 0.01043(11) 1 0
Cu2 Cu2+ 4 e 0.25876(8) 0.17312(4) 0.75895(6) 0.00885(11) 1 0
Na1 Na1+ 4 e 0.2230(3) 0.57932(15) 0.1237(2) 0.0155(3) 1 0
Na2 Na1+ 4 e 0.2255(3) 0.29754(15) 0.1192(2) 0.0160(3) 1 0
Na3 Na1+ 4 e 0.3173(4) 0.3895(2) 0.4461(3) 0.0292(5) 1 0
O1 O2- 4 e 0.0643(5) 0.2869(2) 0.8223(4) 0.0123(5) 1 0
O2 O2- 4 e 0.4495(5) 0.2985(2) 0.7285(4) 0.0161(5) 1 0
O3 O2- 4 e 0.4398(6) 0.5491(3) 0.7154(4) 0.0182(6) 1 0
O4 O2- 4 e 0.0459(5) 0.5603(2) 0.8069(4) 0.0132(5) 1 0
loop_
_atom_site_aniso_label
_atom_site_aniso_type_symbol
_atom_site_aniso_U_11
_atom_site_aniso_U_22
_atom_site_aniso_U_33
_atom_site_aniso_U_12
_atom_site_aniso_U_13
_atom_site_aniso_U_23
Cu1 Cu2+ 0.0108(2) 0.0089(2) 0.0139(2) 0.00021(15) 0.00721(16) -0.00021(16)
Cu2 Cu2+ 0.0082(2) 0.0090(2) 0.01120(19) -0.00026(13) 0.00568(15) -0.00097(13)
Na1 Na1+ 0.0135(7) 0.0126(7) 0.0205(8) 0.0006(6) 0.0056(6) -0.0005(6)
Na2 Na1+ 0.0144(8) 0.0165(8) 0.0175(7) 0.0017(6) 0.0055(6) 0.0024(6)
Na3 Na1+ 0.0233(9) 0.0467(13) 0.0194(9) 0.0034(9) 0.0094(7) 0.0087(8)
O1 O2- 0.0112(12) 0.0109(12) 0.0161(11) 0.0023(9) 0.0060(9) -0.0013(9)
O2 O2- 0.0133(13) 0.0116(12) 0.0276(14) -0.0025(9) 0.0124(11) -0.0042(11)
O3 O2- 0.0180(14) 0.0112(12) 0.0310(17) 0.0023(10) 0.0160(13) 0.0024(10)
O4 O2- 0.0131(12) 0.0099(12) 0.0197(13) -0.0013(9) 0.0095(10) 0.0002(9)
#End of TTdata_415348-ICSD