
#(C) 2019 by FIZ Karlsruhe - Leibniz Institute for Information Infrastructure.  All rights reserved.
data_415412-ICSD
_database_code_ICSD 415412
_audit_creation_date 2008-02-01
_audit_update_record 2012-02-01
_chemical_name_systematic 'Disodium molybdate dihydrate'
_chemical_formula_structural 'Na2 (Mo O4) (H2 O)2'
_chemical_formula_sum 'H4 Mo1 Na2 O6'
_chemical_name_structure_type Na2MoO4(H2O)2
_exptl_crystal_density_diffrn 2.59
_cell_measurement_temperature 293.
_publ_section_title
'Synthesis and crystal structure determination of sodium molybdate dihydrate'
loop_
_citation_id
_citation_journal_full
_citation_year
_citation_journal_volume
_citation_page_first
_citation_page_last
_citation_journal_id_ASTM
primary 'Asian Journal of Chemistry' 2006 18 2856 2860 AJCHEW
loop_
_publ_author_name
'Capitelli, F.'
'Selim, M.D.'
'Mukherjea, K.K.'
_cell_length_a 8.4780(2)
_cell_length_b 10.5790(3)
_cell_length_c 13.8300(4)
_cell_angle_alpha 90.
_cell_angle_beta 90.
_cell_angle_gamma 90.
_cell_volume 1240.4
_cell_formula_units_Z 8
_symmetry_space_group_name_H-M 'P b c a'
_symmetry_Int_Tables_number 61
_refine_ls_R_factor_all 0.0213
loop_
_symmetry_equiv_pos_site_id
_symmetry_equiv_pos_as_xyz
1 'x+1/2, y, -z+1/2'
2 'x, -y+1/2, z+1/2'
3 '-x+1/2, y+1/2, z'
4 '-x, -y, -z'
5 '-x+1/2, -y, z+1/2'
6 '-x, y+1/2, -z+1/2'
7 'x+1/2, -y+1/2, -z'
8 'x, y, z'
loop_
_atom_type_symbol
_atom_type_oxidation_number
Mo6+ 6
Na1+ 1
O2- -2
H1+ 1
loop_
_atom_site_label
_atom_site_type_symbol
_atom_site_symmetry_multiplicity
_atom_site_Wyckoff_symbol
_atom_site_fract_x
_atom_site_fract_y
_atom_site_fract_z
_atom_site_B_iso_or_equiv
_atom_site_occupancy
_atom_site_attached_hydrogens
Mo1 Mo6+ 8 c 0.514911(18) 0.198240(15) 0.023297(11) 0.01433(7) 1 0
Na1 Na1+ 8 c 0.24269(8) 0.05067(7) -0.14798(6) 0.02299(18) 1 0
Na2 Na1+ 8 c 0.65690(9) 0.49525(7) -0.08530(5) 0.02277(17) 1 0
O1 O2- 8 c 0.45065(17) 0.17680(13) -0.09755(10) 0.0215(3) 1 0
O2 O2- 8 c 0.55661(16) 0.36012(13) 0.04172(10) 0.0197(3) 1 0
O3 O2- 8 c 0.37134(16) 0.14881(13) 0.10909(10) 0.0225(3) 1 0
O4 O2- 8 c 0.68680(16) 0.10887(14) 0.03894(11) 0.0244(3) 1 0
O5 O2- 8 c 0.2295(2) 0.14117(16) -0.29896(11) 0.0271(3) 1 0
O6 O2- 8 c 0.0375(2) -0.09083(18) -0.19936(14) 0.0298(3) 1 0
H1 H1+ 8 c 0.276(3) 0.206(3) -0.317(2) 0.038(8) 1 0
H2 H1+ 8 c 0.153(4) 0.146(3) -0.320(3) 0.051(10) 1 0
H3 H1+ 8 c 0.059(3) -0.104(3) -0.252(2) 0.033(8) 1 0
H4 H1+ 8 c 0.047(4) -0.151(3) -0.182(3) 0.043(10) 1 0
loop_
_atom_site_aniso_label
_atom_site_aniso_type_symbol
_atom_site_aniso_U_11
_atom_site_aniso_U_22
_atom_site_aniso_U_33
_atom_site_aniso_U_12
_atom_site_aniso_U_13
_atom_site_aniso_U_23
Mo1 Mo6+ 0.01500(10) 0.01290(11) 0.01510(11) -0.00001(5) 0.00039(5) -0.00029(5)
Na1 Na1+ 0.0225(4) 0.0252(4) 0.0213(4) -0.0019(3) -0.0019(3) 0.0022(3)
Na2 Na1+ 0.0225(4) 0.0215(4) 0.0243(4) 0.0021(3) 0.0010(3) 0.0013(3)
O1 O2- 0.0218(6) 0.0244(7) 0.0184(7) -0.0021(5) -0.0027(5) -0.0020(5)
O2 O2- 0.0200(6) 0.0152(6) 0.0238(6) -0.0013(5) 0.0002(5) -0.0013(5)
O3 O2- 0.0228(6) 0.0227(7) 0.0221(7) -0.0051(5) 0.0041(5) -0.0001(6)
O4 O2- 0.0228(7) 0.0217(7) 0.0287(7) 0.0068(5) -0.0014(5) 0.0011(6)
O5 O2- 0.0266(8) 0.0297(9) 0.0252(8) -0.0030(6) -0.0044(6) 0.0064(6)
O6 O2- 0.0407(9) 0.0241(9) 0.0245(9) -0.0009(7) 0.0052(7) -0.0014(7)
#End of TTdata_415412-ICSD