
#(C) 2019 by FIZ Karlsruhe - Leibniz Institute for Information Infrastructure.  All rights reserved.
data_415686-ICSD
_database_code_ICSD 415686
_audit_creation_date 2006-10-01
_chemical_name_systematic 'Trisodium neptunyl bis(sulfate) 2.5-hydrate'
_chemical_formula_structural 'Na3 (Np O2) (S O4)2 (H2 O)2.5'
_chemical_formula_sum 'H5 Na3 Np1 O12.5 S2'
_exptl_crystal_density_diffrn 3.23
_publ_section_title

;
Structures and syntheses of four Np(5+) sulfate chain structures: Divergence
from U(6+) crystal chemistry
;
loop_
_citation_id
_citation_journal_full
_citation_year
_citation_journal_volume
_citation_page_first
_citation_page_last
_citation_journal_id_ASTM
primary 'Journal of Solid State Chemistry' 2005 178 3445 3452 JSSCBI
loop_
_publ_author_name
'Forbes, T.Z.'
'Burns, P.C.'
_cell_length_a 7.6615(5)
_cell_length_b 7.0184(4)
_cell_length_c 11.0070(7)
_cell_angle_alpha 90.
_cell_angle_beta 90.7870(10)
_cell_angle_gamma 90.
_cell_volume 591.81
_cell_formula_units_Z 2
_symmetry_space_group_name_H-M 'P 1 21/m 1'
_symmetry_Int_Tables_number 11
_refine_ls_R_factor_all 0.0453
loop_
_symmetry_equiv_pos_site_id
_symmetry_equiv_pos_as_xyz
1 'x, -y+1/2, z'
2 '-x, -y, -z'
3 '-x, y+1/2, -z'
4 'x, y, z'
loop_
_atom_type_symbol
_atom_type_oxidation_number
Np5+ 5
Na1+ 1
S6+ 6
O2- -2
H1+ 1
loop_
_atom_site_label
_atom_site_type_symbol
_atom_site_symmetry_multiplicity
_atom_site_Wyckoff_symbol
_atom_site_fract_x
_atom_site_fract_y
_atom_site_fract_z
_atom_site_B_iso_or_equiv
_atom_site_occupancy
_atom_site_attached_hydrogens
Np1 Np5+ 2 e 0.64181(3) 0.75 0.68581(2) 0.01325(8) 1 0
Na1 Na1+ 2 c 0. 0. 0.5 0.0311(7) 1 0
Na2 Na1+ 2 e 0.0124(5) 0.75 0.2103(3) 0.0340(8) 1 0
Na3 Na1+ 4 f 0.3466(13) 0.9538(15) 0.9683(10) 0.101(3) 0.5 0
S1 S6+ 2 e 0.6399(2) 0.25 0.59551(15) 0.0137(3) 1 0
S2 S6+ 2 e 0.9147(2) 0.75 0.90151(18) 0.0232(4) 1 0
O1 O2- 2 e 0.8166(7) 0.75 0.5732(5) 0.0239(11) 1 0
O2 O2- 2 e 0.4697(7) 0.75 0.7974(5) 0.0218(10) 1 0
O3 O2- 2 e 0.8311(7) 0.25 0.6021(5) 0.0241(11) 1 0
O4 O2- 4 f 0.5692(6) 0.0825(6) 0.6575(5) 0.0371(11) 1 0
O5 O2- 2 e 0.1050(8) 0.75 0.8869(7) 0.0374(15) 1 0
O6 O2- 2 e 0.8668(10) 0.75 0.0271(6) 0.0422(17) 1 0
O7 O2- 2 e 0.5844(9) 0.25 0.4691(5) 0.0424(17) 1 0
O8 O2- 4 f 0.8372(5) 0.9195(6) 0.8371(3) 0.0264(8) 1 0
O9 O2- 4 f 0.1738(6) 0.0218(7) 0.6891(4) 0.0380(11) 1 0
O10 O2- 2 e 0.475(4) 0.75 0.085(2) 0.102(8) 0.5 0
H1 H1+ 2 e 0.596(6) 0.75 0.069(16) 0.05 0.5 0
H2 H1+ 4 f 0.132(8) -0.088(7) 0.732(6) 0.05 1 0
H3 H1+ 4 f 0.291(4) -0.020(10) 0.673(6) 0.05 1 0
H4 H1+ 2 e 0.42(2) 0.75 0.008(8) 0.05 0.5 0
loop_
_atom_site_aniso_label
_atom_site_aniso_type_symbol
_atom_site_aniso_U_11
_atom_site_aniso_U_22
_atom_site_aniso_U_33
_atom_site_aniso_U_12
_atom_site_aniso_U_13
_atom_site_aniso_U_23
Np1 Np5+ 0.01343(12) 0.01309(12) 0.01325(12) 0. 0.00066(8) 0.
Na1 Na1+ 0.0288(17) 0.0261(17) 0.0387(18) -0.0044(14) 0.0107(14) -0.0044(15)
Na2 Na1+ 0.0324(18) 0.044(2) 0.0252(17) 0. -0.0082(14) 0.
Na3 Na1+ 0.090(7) 0.099(7) 0.114(7) -0.001(6) 0.051(6) -0.042(6)
S1 S6+ 0.0141(7) 0.0099(6) 0.0171(7) 0. -0.0012(5) 0.
S2 S6+ 0.0191(8) 0.0288(9) 0.0215(9) 0. -0.0069(7) 0.
O1 O2- 0.022(3) 0.027(3) 0.023(3) 0. 0.010(2) 0.
O2 O2- 0.020(2) 0.025(3) 0.021(2) 0. 0.0049(19) 0.
O3 O2- 0.017(2) 0.030(3) 0.025(3) 0. -0.002(2) 0.
O4 O2- 0.029(2) 0.019(2) 0.064(3) 0.0024(17) 0.009(2) 0.018(2)
O5 O2- 0.017(3) 0.042(4) 0.052(4) 0. -0.004(3) 0.
O6 O2- 0.055(4) 0.049(4) 0.022(3) 0. -0.015(3) 0.
O7 O2- 0.033(3) 0.074(5) 0.020(3) 0. -0.011(3) 0.
O8 O2- 0.028(2) 0.026(2) 0.026(2) -0.0011(16) -0.0073(16) -0.0006(15)
O9 O2- 0.028(2) 0.037(3) 0.049(3) 0.0068(19) 0.008(2) 0.006(2)
#End of TTdata_415686-ICSD