
#(C) 2019 by FIZ Karlsruhe - Leibniz Institute for Information Infrastructure.  All rights reserved.
data_415765-ICSD
_database_code_ICSD 415765
_audit_creation_date 2007-08-01
_chemical_name_systematic
'Barium sodium fluoride chloride (6.96/0.07/12/2) - ordered'
_chemical_formula_structural 'Ba6.963 Na0.068 F12 Cl2'
_chemical_formula_sum 'Ba6.963 Cl2 F12 Na0.068'
_chemical_name_structure_type Ba7Cl2F12
_exptl_crystal_density_diffrn 5.12
_cell_measurement_temperature 295.
_publ_section_title

;
On the cristallochemical origin of the disordered form of Ba7 (EuII) F12 Cl2
and the structural changes induced at high temperature
;
loop_
_citation_id
_citation_journal_full
_citation_year
_citation_journal_volume
_citation_page_first
_citation_page_last
_citation_journal_id_ASTM
primary 'Crystal Research and Technology' 2006 41 1005 1012 CRTEDF
loop_
_publ_author_name
'Kubel, F.'
'Hagemann, H.'
_cell_length_a 10.6237(9)
_cell_length_b 10.6237(9)
_cell_length_c 4.1722(3)
_cell_angle_alpha 90.
_cell_angle_beta 90.
_cell_angle_gamma 120.
_cell_volume 407.8
_cell_formula_units_Z 1
_symmetry_space_group_name_H-M 'P -6'
_symmetry_Int_Tables_number 174
_refine_ls_R_factor_all 0.015
loop_
_symmetry_equiv_pos_site_id
_symmetry_equiv_pos_as_xyz
1 '-x+y, -x, -z'
2 '-y, x-y, -z'
3 'x, y, -z'
4 '-x+y, -x, z'
5 '-y, x-y, z'
6 'x, y, z'
loop_
_atom_type_symbol
_atom_type_oxidation_number
Ba2+ 2
Cl1- -1
F1- -1
Ba2+ 2
Na1+ 1
loop_
_atom_site_label
_atom_site_type_symbol
_atom_site_symmetry_multiplicity
_atom_site_Wyckoff_symbol
_atom_site_fract_x
_atom_site_fract_y
_atom_site_fract_z
_atom_site_B_iso_or_equiv
_atom_site_occupancy
_atom_site_attached_hydrogens
Ba1 Ba2+ 3 k .28883(3) .40195(3) .5 .01006(7) 1. 0
Ba2 Ba2+ 3 j .40920(4) .10967(4) . .01189(8) 1. 0
Ba3 Ba2+ 1 a . . . .01989(12) .886(3) 0
Cl1 Cl1- 1 f .66667 .33333 .5 .0162(4) 1. 0
Cl2 Cl1- 1 c .33333 .66666 . .0195(5) 1. 0
F1 F1- 3 k .0511(4) .4358(3) .5 .0107(6) 1. 0
F2 F1- 3 k .2187(4) .1190(4) .5 .0195(6) 1. 0
F3 F1- 3 j .1205(4) .2740(4) . .0233(7) 1. 0
F4 F1- 3 j .4306(4) .3695(4) . .0258(9) 1. 0
Ba4 Ba2+ 1 b . . .5 .003 .077(2) 0
Na1 Na1+ 2 g . . .25 .003 .034(5) 0
loop_
_atom_site_aniso_label
_atom_site_aniso_type_symbol
_atom_site_aniso_U_11
_atom_site_aniso_U_22
_atom_site_aniso_U_33
_atom_site_aniso_U_12
_atom_site_aniso_U_13
_atom_site_aniso_U_23
Ba1 Ba2+ .01242(16) .01277(17) .01106(16) .00628(15) . .
Ba2 Ba2+ .01387(18) .01202(17) .01278(17) .00630(14) . .
Ba3 Ba2+ .0117(2) .0117(2) .0277(3) .00586(11) . .
Cl1 Cl1- .0205(8) .0205(8) .0132(12) .0103(4) . .
Cl2 Cl1- .0168(8) .0168(8) .0209(14) .0084(4) . .
F1 F1- .0183(17) .0147(17) .0201(17) .0066(15) . .
F2 F1- .041(2) .024(2) .0291(17) .022(2) . .
F3 F1- .0189(17) .0255(19) .0149(14) .0086(15) . .
F4 F1- .0180(17) .0178(17) .0156(18) .0099(14) . .
Ba4 Ba2+ .0117(2) .0117(2) .0277(3) .00586(11) . .
Na1 Na1+ .0117(2) .0117(2) .0277(3) .00586(11) . .
#End of TTdata_415765-ICSD