
#(C) 2019 by FIZ Karlsruhe - Leibniz Institute for Information Infrastructure.  All rights reserved.
data_415766-ICSD
_database_code_ICSD 415766
_audit_creation_date 2007-08-01
_audit_update_record 2010-08-01
_chemical_name_systematic
'Barium sodium fluoride chloride (6.91/0.17/12/2) - disordered'
_chemical_formula_structural 'Ba6.905 Na0.174 F12 Cl2'
_chemical_formula_sum 'Ba6.905 Cl2 F12 Na0.174'
_chemical_name_structure_type Ba7F12Cl2(distorted)
_exptl_crystal_density_diffrn 5.1
_publ_section_title

;
On the cristallochemical origin of the disordered form of Ba7 (EuII) F12 Cl2
and the structural changes induced at high temperature
;
loop_
_citation_id
_citation_journal_full
_citation_year
_citation_journal_volume
_citation_page_first
_citation_page_last
_citation_journal_id_ASTM
primary 'Crystal Research and Technology' 2006 41 1005 1012 CRTEDF
loop_
_publ_author_name
'Kubel, F.'
'Hagemann, H.'
_cell_length_a 10.5969(10)
_cell_length_b 10.5969(10)
_cell_length_c 4.1889(4)
_cell_angle_alpha 90.
_cell_angle_beta 90.
_cell_angle_gamma 120.
_cell_volume 407.37
_cell_formula_units_Z 1
_symmetry_space_group_name_H-M 'P 63/m'
_symmetry_Int_Tables_number 176
_refine_ls_R_factor_all 0.015
loop_
_symmetry_equiv_pos_site_id
_symmetry_equiv_pos_as_xyz
1 '-x+y, -x, -z+1/2'
2 '-y, x-y, -z+1/2'
3 'x, y, -z+1/2'
4 'x-y, x, -z'
5 'y, -x+y, -z'
6 '-x, -y, -z'
7 'x-y, x, z+1/2'
8 'y, -x+y, z+1/2'
9 '-x, -y, z+1/2'
10 '-x+y, -x, z'
11 '-y, x-y, z'
12 'x, y, z'
loop_
_atom_type_symbol
_atom_type_oxidation_number
Ba2+ 2
F1- -1
Cl1- -1
Na1+ 1
loop_
_atom_site_label
_atom_site_type_symbol
_atom_site_symmetry_multiplicity
_atom_site_Wyckoff_symbol
_atom_site_fract_x
_atom_site_fract_y
_atom_site_fract_z
_atom_site_B_iso_or_equiv
_atom_site_occupancy
_atom_site_attached_hydrogens
Ba1 Ba2+ 6 h .404717(12) .293700(12) .25 .01284(5) 1. 0
Ba2 Ba2+ 2 a . . .25 .01983(9) .4524(12) 0
F1 F1- 6 h .1167(4) .2156(5) .25 .01964 .498(5) 0
F2 F1- 6 h .1536(5) .2759(4) .25 .01964 .502(5) 0
F3 F1- 6 h .62271(12) .56638(12) .25 .01785 1. 0
Cl1 Cl1- 2 c .66667 .33334 -.25 .0182 1. 0
Na1 Na1+ 2 b . . . .018(6) .087(7) 0
loop_
_atom_site_aniso_label
_atom_site_aniso_type_symbol
_atom_site_aniso_U_11
_atom_site_aniso_U_22
_atom_site_aniso_U_33
_atom_site_aniso_U_12
_atom_site_aniso_U_13
_atom_site_aniso_U_23
Ba1 Ba2+ .01446(8) .01403(7) .01171(7) .00838(5) . .
Ba2 Ba2+ .0113(2) .0113(2) .0385(4) .00565(10) . .
F1 F1- .0144(17) .0170(16) .0277(7) .0080(15) . .
F2 F1- .0144(17) .0170(16) .0277(7) .0080(15) . .
F3 F1- .0208(6) .0156(6) .0166(5) .0087(5) . .
Cl1 Cl1- .0189(3) .0189(3) .0169(4) .00943(13) . .
#End of TTdata_415766-ICSD