
#(C) 2019 by FIZ Karlsruhe - Leibniz Institute for Information Infrastructure.  All rights reserved.
data_41582-ICSD
_database_code_ICSD 41582
_audit_creation_date 1999-11-30
_audit_update_record 2003-04-01
_chemical_name_systematic 'Calcium sodium copper oxide chloride (1.9/0.1/1/2/2)'
_chemical_formula_structural '(Ca1.9 Na0.1) Cu O2 Cl2'
_chemical_formula_sum 'Ca1.9 Cl2 Cu1 Na0.1 O2'
_chemical_name_structure_type Ca2CuCl2O2
_exptl_crystal_density_diffrn 3.62
_publ_section_title
'Structural changes of Zr O2 - Ce O2 solid solutions around the'
loop_
_citation_id
_citation_journal_full
_citation_year
_citation_journal_volume
_citation_page_first
_citation_page_last
_citation_journal_id_ASTM
primary 'Physical Review B: Condensed Matter and Materials Physics' 1995 51 8434
8437 PRBMDO
loop_
_publ_author_name
'Yashima, M.'
'Hirose, T.'
'Katano, S.'
'Suzuki, Y.'
'Kakihana, M.'
'Yoshimura, M.'
_cell_length_a 3.8495(1)
_cell_length_b 3.8495(1)
_cell_length_c 15.1729(5)
_cell_angle_alpha 90.
_cell_angle_beta 90.
_cell_angle_gamma 90.
_cell_volume 224.84
_cell_formula_units_Z 2
_symmetry_space_group_name_H-M 'I 4/m m m'
_symmetry_Int_Tables_number 139
_refine_ls_R_factor_all 0.085
loop_
_symmetry_equiv_pos_site_id
_symmetry_equiv_pos_as_xyz
1 'y, x, -z'
2 '-y, -x, -z'
3 '-y, x, -z'
4 'y, -x, -z'
5 '-x, y, -z'
6 'x, -y, -z'
7 'x, y, -z'
8 '-x, -y, -z'
9 '-y, -x, z'
10 'y, x, z'
11 'y, -x, z'
12 '-y, x, z'
13 'x, -y, z'
14 '-x, y, z'
15 '-x, -y, z'
16 'x, y, z'
17 'y+1/2, x+1/2, -z+1/2'
18 '-y+1/2, -x+1/2, -z+1/2'
19 '-y+1/2, x+1/2, -z+1/2'
20 'y+1/2, -x+1/2, -z+1/2'
21 '-x+1/2, y+1/2, -z+1/2'
22 'x+1/2, -y+1/2, -z+1/2'
23 'x+1/2, y+1/2, -z+1/2'
24 '-x+1/2, -y+1/2, -z+1/2'
25 '-y+1/2, -x+1/2, z+1/2'
26 'y+1/2, x+1/2, z+1/2'
27 'y+1/2, -x+1/2, z+1/2'
28 '-y+1/2, x+1/2, z+1/2'
29 'x+1/2, -y+1/2, z+1/2'
30 '-x+1/2, y+1/2, z+1/2'
31 '-x+1/2, -y+1/2, z+1/2'
32 'x+1/2, y+1/2, z+1/2'
loop_
_atom_type_symbol
_atom_type_oxidation_number
Ca2+ 2
Na1+ 1
Cu2+ 2
O2- -2
Cl1- -1
loop_
_atom_site_label
_atom_site_type_symbol
_atom_site_symmetry_multiplicity
_atom_site_Wyckoff_symbol
_atom_site_fract_x
_atom_site_fract_y
_atom_site_fract_z
_atom_site_B_iso_or_equiv
_atom_site_occupancy
_atom_site_attached_hydrogens
Ca1 Ca2+ 4 e 0 0 0.3959(3) . 0.95 0
Na1 Na1+ 4 e 0 0 0.3959(3) . 0.05 0
Cu1 Cu2+ 2 a 0 0 0 . 1. 0
O1 O2- 4 c 0 0.5 0 . 0.99 0
Cl1 Cl1- 4 e 0 0 0.1820(1) . 1. 0
loop_
_atom_site_aniso_label
_atom_site_aniso_type_symbol
_atom_site_aniso_U_11
_atom_site_aniso_U_22
_atom_site_aniso_U_33
_atom_site_aniso_U_12
_atom_site_aniso_U_13
_atom_site_aniso_U_23
Ca1 Ca2+ 0.011(1) 0.011 0.022(2) 0 0 0
Na1 Na1+ 0.011(1) 0.011 0.022(2) 0 0 0
Cu1 Cu2+ 0.0031(9) 0.0031 0.012(1) 0 0 0
O1 O2- 0.009(2) 0.002(2) 0.016(2) 0 0 0
Cl1 Cl1- 0.014(8) 0.014 0.013(1) 0 0 0
#End of TTdata_41582-ICSD