
#(C) 2019 by FIZ Karlsruhe - Leibniz Institute for Information Infrastructure.  All rights reserved.
data_416040-ICSD
_database_code_ICSD 416040
_audit_creation_date 2006-10-01
_chemical_name_systematic
'Tripotassium sodium diruthenate(VI) - high temperature phase'
_chemical_formula_structural 'K3 Na (Ru O4)2'
_chemical_formula_sum 'K3 Na1 O8 Ru2'
_chemical_name_structure_type K3Na(SO4)2
_exptl_crystal_density_diffrn 3.24
_cell_measurement_temperature 473.
_publ_section_title

;
K3 Na (Ru O4)2 and Rb3 Na (Ru O4)2, two new ruthenates with glaserite
structure
;
loop_
_citation_id
_citation_journal_full
_citation_year
_citation_journal_volume
_citation_page_first
_citation_page_last
_citation_journal_id_ASTM
primary 'Solid State Sciences' 2006 8 500 507 SSSCFJ
loop_
_publ_author_name
'Mogare, K.M.'
'Klein, W.'
'Peters, E.M.'
'Jansen, M.'
_cell_length_a 6.01644(8)
_cell_length_b 6.01644(8)
_cell_length_c 7.68547(15)
_cell_angle_alpha 90.
_cell_angle_beta 90.
_cell_angle_gamma 120.
_cell_volume 240.92
_cell_formula_units_Z 1
_symmetry_space_group_name_H-M 'P -3 m 1'
_symmetry_Int_Tables_number 164
_refine_ls_R_factor_all 0.0649
loop_
_symmetry_equiv_pos_site_id
_symmetry_equiv_pos_as_xyz
1 'x-y, -y, -z'
2 '-x, -x+y, -z'
3 'y, x, -z'
4 'x-y, x, -z'
5 'y, -x+y, -z'
6 '-x, -y, -z'
7 '-x+y, y, z'
8 'x, x-y, z'
9 '-y, -x, z'
10 '-x+y, -x, z'
11 '-y, x-y, z'
12 'x, y, z'
loop_
_atom_type_symbol
_atom_type_oxidation_number
K1+ 1
Na1+ 1
Ru6+ 6
O2- -2
loop_
_atom_site_label
_atom_site_type_symbol
_atom_site_symmetry_multiplicity
_atom_site_Wyckoff_symbol
_atom_site_fract_x
_atom_site_fract_y
_atom_site_fract_z
_atom_site_B_iso_or_equiv
_atom_site_occupancy
_atom_site_attached_hydrogens
K1 K1+ 1 a 0. 0. 0. 0.0460(2) 1. 0
K2 K1+ 2 d 0.6666 0.3333 0.3410(4) 0.0384(1) 1. 0
Na1 Na1+ 1 b 0. 0. 0.5 0.0321(4) 1. 0
Ru1 Ru6+ 2 d 0.6666 0.3333 0.78551(16) 0.0171(3) 1. 0
O1 O2- 2 d 0.6666 0.3333 0.0009(13) 0.1253(3) 1. 0
O2 O2- 6 i 0.3596(9) 0.1798(4) 0.6948(6) 0.0402(2) 1. 0
#End of TTdata_416040-ICSD