
#(C) 2019 by FIZ Karlsruhe - Leibniz Institute for Information Infrastructure.  All rights reserved.
data_416170-ICSD
_database_code_ICSD 416170
_audit_creation_date 2007-08-01
_chemical_name_systematic 'Sodium oxovanadate(V)'
_chemical_formula_structural 'Na5 (V O4) O'
_chemical_formula_sum 'Na5 O5 V1'
_chemical_name_structure_type Na5OAsO4
_exptl_crystal_density_diffrn 2.64
_publ_section_title
'Synthesis and characterization of Na5 [V O4] [O] and Na4 [V O4] [O H]'
loop_
_citation_id
_citation_journal_full
_citation_year
_citation_journal_volume
_citation_page_first
_citation_page_last
_citation_journal_id_ASTM
primary 'Zeitschrift fuer Anorganische und Allgemeine Chemie (1950) (DE)' 2006
632 1187 1194 ZAACAB
loop_
_publ_author_name
'Kerp, O.'
'Moeller, A.'
_cell_length_a 5.7958(9)
_cell_length_b 16.113(2)
_cell_length_c 6.6310(11)
_cell_angle_alpha 90.
_cell_angle_beta 90.
_cell_angle_gamma 90.
_cell_volume 619.25
_cell_formula_units_Z 4
_symmetry_space_group_name_H-M 'P b c m'
_symmetry_Int_Tables_number 57
_refine_ls_R_factor_all 0.0602
loop_
_symmetry_equiv_pos_site_id
_symmetry_equiv_pos_as_xyz
1 'x, -y+1/2, z+1/2'
2 '-x, y+1/2, z'
3 'x, y, -z+1/2'
4 '-x, -y, -z'
5 '-x, y+1/2, -z+1/2'
6 'x, -y+1/2, -z'
7 '-x, -y, z+1/2'
8 'x, y, z'
loop_
_atom_type_symbol
_atom_type_oxidation_number
V5+ 5
O2- -2
Na1+ 1
loop_
_atom_site_label
_atom_site_type_symbol
_atom_site_symmetry_multiplicity
_atom_site_Wyckoff_symbol
_atom_site_fract_x
_atom_site_fract_y
_atom_site_fract_z
_atom_site_B_iso_or_equiv
_atom_site_occupancy
_atom_site_attached_hydrogens
V1 V5+ 4 d 0.20835(16) 0.09299(5) 0.75 0.0093(3) 1 0
O1 O2- 8 e 0.1543(5) 0.15295(17) 0.5406(4) 0.0147(6) 1 0
O2 O2- 4 d 0.0149(7) 0.0125(3) 0.75 0.0153(8) 1 0
O3 O2- 4 d 0.4824(8) 0.0534(3) 0.75 0.0212(9) 1 0
O4 O2- 4 d 0.6409(7) 0.1734(2) 0.25 0.0117(8) 1 0
Na1 Na1+ 8 e 0.7771(3) 0.08077(10) 0.0162(2) 0.0169(4) 1 0
Na2 Na1+ 4 d 0.9915(4) 0.23027(14) 0.25 0.0171(5) 1 0
Na3 Na1+ 4 d 0.3251(4) 0.08442(15) 0.25 0.0167(5) 1 0
Na4 Na1+ 4 c 0.4802(4) 0.25 0. 0.0168(5) 1 0
loop_
_atom_site_aniso_label
_atom_site_aniso_type_symbol
_atom_site_aniso_U_11
_atom_site_aniso_U_22
_atom_site_aniso_U_33
_atom_site_aniso_U_12
_atom_site_aniso_U_13
_atom_site_aniso_U_23
V1 V5+ 0.0099(4) 0.0086(4) 0.0094(4) 0.0004(3) 0. 0.
O1 O2- 0.0173(13) 0.0138(13) 0.0130(13) -0.0011(10) 0.0003(11) 0.0015(11)
O2 O2- 0.0160(19) 0.0158(19) 0.0141(18) 0.0006(16) 0. 0.
O3 O2- 0.015(2) 0.025(2) 0.024(2) 0.0070(17) 0. 0.
O4 O2- 0.0121(17) 0.0125(18) 0.0105(17) -0.0021(15) 0. 0.
Na1 Na1+ 0.0180(8) 0.0179(8) 0.0148(8) 0.0015(6) 0.0018(7) -0.0030(6)
Na2 Na1+ 0.0168(11) 0.0150(11) 0.0195(11) -0.0047(9) 0. 0.
Na3 Na1+ 0.0158(11) 0.0166(11) 0.0178(11) -0.0008(9) 0. 0.
Na4 Na1+ 0.0170(10) 0.0189(11) 0.0146(10) 0. 0. 0.0045(9)
#End of TTdata_416170-ICSD