
#(C) 2019 by FIZ Karlsruhe - Leibniz Institute for Information Infrastructure.  All rights reserved.
data_416364-ICSD
_database_code_ICSD 416364
_audit_creation_date 2007-04-01
_chemical_name_systematic
'Disodium octalitium undecauranyl dodecaoxide bis(pentaoxotungstate(VI))'
_chemical_formula_structural 'Na2 Li8 ((U O2)11 O12 (W O5)2)'
_chemical_formula_sum 'Li8 Na2 O44 U11 W2'
_exptl_crystal_density_diffrn 7.1
_publ_section_title

;
Na2 Li8 [(U O2)11 O12 (W O5)2] : Three Different Uranyl-Ion Coordination
Geometries and Cation-Cation Interactions
;
loop_
_citation_id
_citation_journal_full
_citation_year
_citation_journal_volume
_citation_page_first
_citation_page_last
_citation_journal_id_ASTM
primary 'Angewandte Chemie, International Edition' 2006 45 7233 7235 ACIEF5
loop_
_publ_author_name
'Alekseev, E.V.'
'Krivovichev, S.V.'
'Depmeier, W.'
'Siidra, O.I.'
'Knorr, K.'
'Suleimanov, E.V.'
'Chuprunov, E.V.'
_cell_length_a 6.9458(18)
_cell_length_b 11.207(3)
_cell_length_c 12.054(5)
_cell_angle_alpha 99.525(17)
_cell_angle_beta 106.21(2)
_cell_angle_gamma 90.223(12)
_cell_volume 887.33
_cell_formula_units_Z 1
_symmetry_space_group_name_H-M 'P -1'
_symmetry_Int_Tables_number 2
_refine_ls_R_factor_all 0.0793
loop_
_symmetry_equiv_pos_site_id
_symmetry_equiv_pos_as_xyz
1 '-x, -y, -z'
2 'x, y, z'
loop_
_atom_type_symbol
_atom_type_oxidation_number
U6+ 6
W6+ 6
Na1+ 1
Li1+ 1
O2- -2
loop_
_atom_site_label
_atom_site_type_symbol
_atom_site_symmetry_multiplicity
_atom_site_Wyckoff_symbol
_atom_site_fract_x
_atom_site_fract_y
_atom_site_fract_z
_atom_site_B_iso_or_equiv
_atom_site_occupancy
_atom_site_attached_hydrogens
U1 U6+ 2 i 0.78293(7) 0.35852(4) 0.24118(5) 0.00354(11) 1 0
U2 U6+ 2 i 0.80442(7) 0.04444(4) 0.27231(5) 0.00573(12) 1 0
U3 U6+ 2 i 1.30482(7) -0.14339(4) 0.27507(5) 0.00452(11) 1 0
U4 U6+ 1 e 0.5 0.5 0. 0.00699(16) 1 0
U5 U6+ 2 i 0.21017(7) 0.28081(4) -0.25415(5) 0.00403(11) 1 0
U6 U6+ 2 i 1.29525(7) -0.76803(4) 0.26468(5) 0.00498(11) 1 0
W1 W6+ 2 i 1.29020(8) -0.45515(5) 0.27925(6) 0.00472(12) 1 0
Na1 Na1+ 2 i 1.0018(11) -0.6794(9) -0.0049(8) 0.032(2) 1 0
Li1 Li1+ 2 i 1.191(5) 0.432(3) 0.500(4) 0.027(7) 1 0
Li2 Li1+ 2 i 0.472(6) -0.137(4) 0.006(4) 0.035(9) 1 0
Li3 Li1+ 2 i 0.783(5) 0.268(3) 0.485(4) 0.028(7) 1 0
Li4 Li1+ 2 i 1.281(6) 0.099(4) 0.495(4) 0.037(9) 1 0
O1 O2- 2 i 0.0295(15) 0.1211(9) -0.2402(10) 0.008(2) 1 0
O2 O2- 2 i 1.4795(14) -0.3319(9) 0.2822(10) 0.0054(19) 1 0
O3 O2- 2 i 0.7258(14) 0.5275(9) 0.1759(10) 0.0054(18) 1 0
O4 O2- 2 i 1.2635(19) -0.8178(12) 0.1077(13) 0.022(3) 1 0
O5 O2- 2 i 0.9061(15) 0.4195(9) 0.3970(11) 0.009(2) 1 0
O6 O2- 2 i 1.3042(16) 0.0521(10) 0.3104(11) 0.011(2) 1 0
O7 O2- 2 i 1.1044(15) -0.3411(9) 0.2251(11) 0.010(2) 1 0
O8 O2- 2 i 0.9576(15) -0.8053(9) 0.2242(11) 0.010(2) 1 0
O9 O2- 2 i 0.6410(16) 0.2097(10) 0.3073(11) 0.013(2) 1 0
O10 O2- 2 i 1.0966(16) -0.5860(10) 0.2189(12) 0.013(2) 1 0
O11 O2- 2 i 0.9614(17) 0.0868(10) 0.4264(12) 0.015(2) 1 0
O12 O2- 2 i 0.6456(15) 0.3063(9) 0.0838(11) 0.010(2) 1 0
O13 O2- 2 i 1.4792(15) -0.5775(9) 0.2712(10) 0.008(2) 1 0
O14 O2- 2 i 0.6491(17) 0.0091(11) 0.1168(12) 0.016(2) 1 0
O15 O2- 2 i 0.6486(15) -0.1099(9) 0.3191(10) 0.008(2) 1 0
O16 O2- 2 i 0.2996(17) 0.5093(10) 0.0700(12) 0.015(2) 1 0
O17 O2- 2 i 0.3440(16) 0.2755(10) -0.0975(12) 0.014(2) 1 0
O18 O2- 2 i 1.2704(17) -0.1507(10) 0.1172(12) 0.015(2) 1 0
O19 O2- 2 i 1.2963(16) -0.4332(10) 0.4274(11) 0.011(2) 1 0
O20 O2- 2 i 0.0909(16) 0.3002(10) -0.4052(11) 0.011(2) 1 0
O21 O2- 2 i 1.3345(16) -0.1440(10) 0.4316(12) 0.013(2) 1 0
O22 O2- 2 i 1.3098(17) -0.7131(11) 0.4203(12) 0.016(2) 1 0
loop_
_atom_site_aniso_label
_atom_site_aniso_type_symbol
_atom_site_aniso_U_11
_atom_site_aniso_U_22
_atom_site_aniso_U_33
_atom_site_aniso_U_12
_atom_site_aniso_U_13
_atom_site_aniso_U_23
U1 U6+ 0.0039(2) 0.0034(2) 0.0034(3) 0.00008(16) 0.00097(18) 0.00072(17)
U2 U6+ 0.0067(2) 0.0033(2) 0.0071(3) -0.00002(17) 0.0017(2) 0.00117(19)
U3 U6+ 0.0039(2) 0.0045(2) 0.0055(3) 0.00012(16) 0.00189(19) 0.00106(18)
U4 U6+ 0.0067(3) 0.0102(3) 0.0044(4) 0.0004(3) 0.0016(3) 0.0020(3)
U5 U6+ 0.0037(2) 0.00329(19) 0.0051(3) -0.00022(16) 0.00114(19) 0.00086(18)
U6 U6+ 0.0040(2) 0.0047(2) 0.0069(3) 0.00016(17) 0.00260(19) 0.00125(18)
W1 W6+ 0.0032(2) 0.0038(2) 0.0081(3) 0.00018(18) 0.0029(2) 0.0015(2)
Na1 Na1+ 0.024(4) 0.054(5) 0.009(4) -0.006(4) -0.001(3) -0.004(4)
#End of TTdata_416364-ICSD