
#(C) 2019 by FIZ Karlsruhe - Leibniz Institute for Information Infrastructure.  All rights reserved.
data_416591-ICSD
_database_code_ICSD 416591
_audit_creation_date 2007-08-01
_chemical_name_systematic 'Cesium sodium niobiouranate (0.08/0.92/1)'
_chemical_formula_structural '(Cs0.077 Na0.923) (Nb U O6)'
_chemical_formula_sum 'Cs0.077 Na0.923 Nb1 O6 U1'
_chemical_name_structure_type KNbUO6
_exptl_crystal_density_diffrn 5.78
_publ_section_title

;
The A(1-x) U Nb O(6-x/2) compounds (x = 0, A = Li, Na, Cs and x = 0.5, A = Rb,
Cs): from layered to tunneled structure
;
loop_
_citation_id
_citation_journal_full
_citation_year
_citation_journal_volume
_citation_page_first
_citation_page_last
_citation_journal_id_ASTM
primary 'Journal of Solid State Chemistry' 2006 179 3238 3251 JSSCBI
loop_
_publ_author_name
'Surble, S.'
'Obbade, S.'
'Saad, S.'
'Yagoubi, S.'
'Dion, C.'
'Abraham, F.'
_cell_length_a 10.272(4)
_cell_length_b 7.628(3)
_cell_length_c 13.451(5)
_cell_angle_alpha 90.
_cell_angle_beta 90.
_cell_angle_gamma 90.
_cell_volume 1053.95
_cell_formula_units_Z 8
_symmetry_space_group_name_H-M 'P n m a'
_symmetry_Int_Tables_number 62
_refine_ls_R_factor_all 0.036
loop_
_symmetry_equiv_pos_site_id
_symmetry_equiv_pos_as_xyz
1 'x+1/2, y, -z+1/2'
2 'x, -y+1/2, z'
3 '-x+1/2, y+1/2, z+1/2'
4 '-x, -y, -z'
5 '-x+1/2, -y, z+1/2'
6 '-x, y+1/2, -z'
7 'x+1/2, -y+1/2, -z+1/2'
8 'x, y, z'
loop_
_atom_type_symbol
_atom_type_oxidation_number
U6+ 6
Nb5+ 5
Cs1+ 1
Na1+ 1
O2- -2
loop_
_atom_site_label
_atom_site_type_symbol
_atom_site_symmetry_multiplicity
_atom_site_Wyckoff_symbol
_atom_site_fract_x
_atom_site_fract_y
_atom_site_fract_z
_atom_site_B_iso_or_equiv
_atom_site_occupancy
_atom_site_attached_hydrogens
U1 U6+ 4 c 0.31347(10) 0.25 0.70132(8) 0.0136(3) 1 0
U2 U6+ 4 c 0.35311(10) 0.75 0.72684(8) 0.0137(3) 1 0
Nb1 Nb5+ 8 d 0.04845(15) 0.0009(2) 0.60876(11) 0.0066(3) 1 0
Cs1 Cs1+ 8 d 0.3619(7) 0.9885(8) 0.4422(5) 0.035(3) 0.077(7) 0
Na1 Na1+ 8 d 0.3619(7) 0.9885(8) 0.4422(5) 0.035(3) 0.92 0
O1 O2- 4 c 0.2457(17) 0.75 0.8295(15) 0.020(5) 1 0
O2 O2- 4 c 0.4094(18) 0.25 0.5884(15) 0.025(5) 1 0
O3 O2- 4 c 0.1044(19) 0.25 0.6121(14) 0.016(4) 1 0
O4 O2- 4 c 0.4557(19) 0.75 0.6175(15) 0.026(5) 1 0
O5 O2- 8 d 0.9427(12) 0.0338(16) 0.7303(10) 0.016(3) 1 0
O6 O2- 4 c 0.216(2) 0.25 0.8104(14) 0.022(4) 1 0
O7 O2- 8 d 0.2293(13) 0.9686(15) 0.6596(11) 0.018(3) 1 0
O8 O2- 4 c 0.0154(16) 0.75 0.6422(15) 0.016(4) 1 0
O9 O2- 8 d 0.8941(13) 0.0454(19) 0.5256(11) 0.026(3) 1 0
loop_
_atom_site_aniso_label
_atom_site_aniso_type_symbol
_atom_site_aniso_U_11
_atom_site_aniso_U_22
_atom_site_aniso_U_33
_atom_site_aniso_U_12
_atom_site_aniso_U_13
_atom_site_aniso_U_23
U1 U6+ 0.0163(5) 0.0098(5) 0.0147(5) 0. -0.0006(4) 0.
U2 U6+ 0.0141(5) 0.0105(5) 0.0165(5) 0. -0.0005(4) 0.
Nb1 Nb5+ 0.0049(7) 0.0028(6) 0.0120(8) -0.0016(5) 0.0017(6) 0.0000(6)
Cs1 Cs1+ 0.047(5) 0.026(4) 0.033(4) -0.005(3) 0.002(3) -0.008(3)
Na1 Na1+ 0.047(5) 0.026(4) 0.033(4) -0.005(3) 0.002(3) -0.008(3)
O1 O2- 0.015(11) 0.010(9) 0.035(12) 0. 0.018(9) 0.
O2 O2- 0.013(10) 0.045(14) 0.017(11) 0. 0.006(9) 0.
O3 O2- 0.028(11) 0.007(9) 0.012(9) 0. -0.001(8) 0.
O4 O2- 0.021(11) 0.032(13) 0.025(11) 0. 0.001(9) 0.
O5 O2- 0.017(7) 0.015(8) 0.015(6) -0.001(5) 0.001(6) -0.001(5)
O6 O2- 0.034(12) 0.011(9) 0.020(11) 0. -0.004(9) 0.
O7 O2- 0.017(7) 0.009(7) 0.028(8) 0.000(5) -0.008(6) 0.002(5)
O8 O2- 0.005(9) 0.020(11) 0.024(11) 0. -0.001(8) 0.
O9 O2- 0.011(7) 0.033(9) 0.034(9) -0.001(6) -0.010(6) 0.003(7)
#End of TTdata_416591-ICSD