
#(C) 2019 by FIZ Karlsruhe - Leibniz Institute for Information Infrastructure.  All rights reserved.
data_416727-ICSD
_database_code_ICSD 416727
_audit_creation_date 2008-02-01
_chemical_name_systematic 'Trisodium borooctaoxodiphosphate(V)'
_chemical_formula_structural 'Na3 B P2 O8'
_chemical_formula_sum 'B1 Na3 O8 P2'
_exptl_crystal_density_diffrn 2.72
_cell_measurement_temperature 293.
_publ_section_title

;
Low-temperature flux syntheses and characterizations of two 1-D anhydrous
borophosphates: Na3 B6 P O13 and Na3 B P2 O8
;
loop_
_citation_id
_citation_journal_full
_citation_year
_citation_journal_volume
_citation_page_first
_citation_page_last
_citation_journal_id_ASTM
primary 'Journal of Solid State Chemistry' 2007 180 233 239 JSSCBI
loop_
_publ_author_name
'Xiong Ding Bang'
'Chen Hao Hong'
'Yang Xin Xin'
'Zhao Jing Thai'
_cell_length_a 12.567(4)
_cell_length_b 10.290(3)
_cell_length_c 10.210(3)
_cell_angle_alpha 90.
_cell_angle_beta 92.492(5)
_cell_angle_gamma 90.
_cell_volume 1319.05
_cell_formula_units_Z 8
_symmetry_space_group_name_H-M 'C 1 2/c 1'
_symmetry_Int_Tables_number 15
_refine_ls_R_factor_all 0.0401
loop_
_symmetry_equiv_pos_site_id
_symmetry_equiv_pos_as_xyz
1 'x, -y, z+1/2'
2 '-x, -y, -z'
3 '-x, y, -z+1/2'
4 'x, y, z'
5 'x+1/2, -y+1/2, z+1/2'
6 '-x+1/2, -y+1/2, -z'
7 '-x+1/2, y+1/2, -z+1/2'
8 'x+1/2, y+1/2, z'
loop_
_atom_type_symbol
_atom_type_oxidation_number
P5+ 5
B3+ 3
Na1+ 1
O2- -2
loop_
_atom_site_label
_atom_site_type_symbol
_atom_site_symmetry_multiplicity
_atom_site_Wyckoff_symbol
_atom_site_fract_x
_atom_site_fract_y
_atom_site_fract_z
_atom_site_B_iso_or_equiv
_atom_site_occupancy
_atom_site_attached_hydrogens
P1 P5+ 8 f 0.08654(5) 0.85920(6) 1.04270(7) 0.01142(18) 1 0
P2 P5+ 8 f 0.16040(5) 0.62927(6) 0.56203(7) 0.01080(18) 1 0
B1 B3+ 8 f -0.1335(2) 0.8882(3) 1.0019(3) 0.0133(7) 1 0
Na1 Na1+ 8 f 0.25298(9) 0.88976(10) 0.76766(10) 0.0200(3) 1 0
Na2 Na1+ 8 f 0.09020(10) 0.61519(10) 0.88102(12) 0.0261(3) 1 0
Na3 Na1+ 4 e 0. 0.95724(15) 0.75 0.0199(4) 1 0
Na4 Na1+ 4 e 0. 0.65172(16) 1.25 0.0221(4) 1 0
O1 O2- 8 f -0.03384(14) 0.87577(16) 1.08071(17) 0.0132(4) 1 0
O2 O2- 8 f 0.09580(14) 0.83934(17) 0.89781(17) 0.0153(4) 1 0
O3 O2- 8 f 0.13461(14) 0.99555(16) 1.08728(17) 0.0130(4) 1 0
O4 O2- 8 f 0.13381(14) 0.75310(17) 1.12575(17) 0.0186(5) 1 0
O5 O2- 8 f 0.15012(14) 0.77984(16) 0.59025(17) 0.0132(4) 1 0
O6 O2- 8 f 0.09924(15) 0.55835(17) 0.66321(18) 0.0164(4) 1 0
O7 O2- 8 f 0.28159(14) 0.59791(17) 0.59411(17) 0.0132(4) 1 0
O8 O2- 8 f 0.12940(14) 0.59822(17) 0.42206(17) 0.0156(4) 1 0
loop_
_atom_site_aniso_label
_atom_site_aniso_type_symbol
_atom_site_aniso_U_11
_atom_site_aniso_U_22
_atom_site_aniso_U_33
_atom_site_aniso_U_12
_atom_site_aniso_U_13
_atom_site_aniso_U_23
P1 P5+ 0.0103(4) 0.0106(3) 0.0133(4) -0.0002(3) 0.0003(3) 0.0002(3)
P2 P5+ 0.0096(4) 0.0104(3) 0.0124(4) 0.0005(3) 0.0008(3) 0.0002(3)
B1 B3+ 0.0100(15) 0.0127(15) 0.0174(16) -0.0009(12) 0.0010(12) 0.0013(12)
Na1 Na1+ 0.0174(6) 0.0236(6) 0.0189(6) 0.0002(5) -0.0007(4) -0.0001(5)
Na2 Na1+ 0.0357(8) 0.0174(6) 0.0255(7) 0.0025(5) 0.0030(5) -0.0023(5)
Na3 Na1+ 0.0200(9) 0.0248(9) 0.0148(8) 0. -0.0006(6) 0.
Na4 Na1+ 0.0156(9) 0.0305(9) 0.0201(9) 0. 0.0007(6) 0.
O1 O2- 0.0099(10) 0.0165(10) 0.0134(10) -0.0003(8) 0.0006(7) 0.0002(8)
O2 O2- 0.0154(10) 0.0156(9) 0.0152(10) -0.0004(8) 0.0013(8) -0.0014(8)
O3 O2- 0.0132(10) 0.0120(9) 0.0137(10) -0.0032(8) -0.0002(7) 0.0002(8)
O4 O2- 0.0173(11) 0.0160(10) 0.0225(11) 0.0029(8) 0.0016(8) 0.0041(8)
O5 O2- 0.0153(10) 0.0106(9) 0.0136(10) 0.0016(8) 0.0001(7) 0.0000(8)
O6 O2- 0.0160(11) 0.0159(9) 0.0177(10) -0.0021(8) 0.0046(8) 0.0022(8)
O7 O2- 0.0093(10) 0.0162(9) 0.0141(10) 0.0023(8) 0.0012(7) 0.0014(8)
O8 O2- 0.0153(10) 0.0163(9) 0.0149(10) 0.0005(8) -0.0016(7) -0.0012(8)
#End of TTdata_416727-ICSD