
#(C) 2019 by FIZ Karlsruhe - Leibniz Institute for Information Infrastructure.  All rights reserved.
data_416723-ICSD
_database_code_ICSD 416723
_audit_creation_date 2008-08-01
_chemical_name_systematic 'Holmium sodium iridium oxide (0.90/1.10/1/4)'
_chemical_formula_structural '(Ho0.90 Na0.10) Na Ir O4'
_chemical_formula_sum 'Ho0.9 Ir1 Na1.1 O4'
_chemical_name_structure_type Ca2IrO4
_exptl_crystal_density_diffrn 8.86
_cell_measurement_temperature 294.
_publ_section_title

;
The crystal growth and magnetic properties of the new iridates, Ln(1-x)
Na(1+x) Ir O4 (Ln = Gd - Er, Y; x = 0.04 - 0.25)
;
loop_
_citation_id
_citation_journal_full
_citation_year
_citation_journal_volume
_citation_page_first
_citation_page_last
_citation_journal_id_ASTM
primary 'Solid State Sciences' 2007 9 555 563 SSSCFJ
loop_
_publ_author_name
'Mugavero, S.J.'
'Smith, D.'
'zur Loye, H.C.'
_cell_length_a 9.3873(2)
_cell_length_b 9.3873(2)
_cell_length_c 3.1740(2)
_cell_angle_alpha 90.
_cell_angle_beta 90.
_cell_angle_gamma 120.
_cell_volume 242.22
_cell_formula_units_Z 3
_symmetry_space_group_name_H-M 'P -6 2 m'
_symmetry_Int_Tables_number 189
_refine_ls_R_factor_all 0.0253
loop_
_symmetry_equiv_pos_site_id
_symmetry_equiv_pos_as_xyz
1 '-x, -x+y, -z'
2 'x-y, -y, -z'
3 'y, x, -z'
4 '-x, -x+y, z'
5 'x-y, -y, z'
6 'y, x, z'
7 '-x+y, -x, -z'
8 '-y, x-y, -z'
9 'x, y, -z'
10 '-x+y, -x, z'
11 '-y, x-y, z'
12 'x, y, z'
loop_
_atom_type_symbol
_atom_type_oxidation_number
Ir4+ 4.19
Ho3+ 3
Na1+ 1
O2- -2
loop_
_atom_site_label
_atom_site_type_symbol
_atom_site_symmetry_multiplicity
_atom_site_Wyckoff_symbol
_atom_site_fract_x
_atom_site_fract_y
_atom_site_fract_z
_atom_site_B_iso_or_equiv
_atom_site_occupancy
_atom_site_attached_hydrogens
Ir1 Ir4+ 3 f 0.32840(9) 0. 0. 0.00454(17) 1 0
Ho1 Ho3+ 2 d 0.3333 0.6667 0.5 0.0114(3) 1 0
Ho2 Ho3+ 3 g 0.7015(3) 0. 0.5 0.0043(7) 0.237(6) 0
Na1 Na1+ 3 g 0.7015(3) 0. 0.5 0.0043(7) 0.763(6) 0
Na2 Na1+ 1 a 0. 0. 0. 0.012(2) 1 0
O1 O2- 3 g 0.1903(15) 0. 0.5 0.008(2) 1 0
O2 O2- 3 g 0.4594(13) 0. 0.5 0.007(2) 1 0
O3 O2- 6 j 0.4586(11) 0.2474(11) 0. 0.0084(14) 1 0
loop_
_atom_site_aniso_label
_atom_site_aniso_type_symbol
_atom_site_aniso_U_11
_atom_site_aniso_U_22
_atom_site_aniso_U_33
_atom_site_aniso_U_12
_atom_site_aniso_U_13
_atom_site_aniso_U_23
Ir1 Ir4+ 0.0050(2) 0.0032(3) 0.0049(2) 0.00158(14) 0. 0.
Ho1 Ho3+ 0.0133(4) 0.0133(4) 0.0075(5) 0.0067(2) 0. 0.
Ho2 Ho3+ 0.0020(10) 0.0018(11) 0.0090(13) 0.0009(6) 0. 0.
Na1 Na1+ 0.0020(10) 0.0018(11) 0.0090(13) 0.0009(6) 0. 0.
Na2 Na1+ 0.008(3) 0.008(3) 0.019(6) 0.0038(17) 0. 0.
O1 O2- 0.010(4) 0.008(6) 0.006(5) 0.004(3) 0. 0.
O2 O2- 0.008(4) 0.014(6) 0.002(5) 0.007(3) 0. 0.
O3 O2- 0.008(4) 0.008(4) 0.010(3) 0.004(3) 0. 0.
#End of TTdata_416723-ICSD