
#(C) 2019 by FIZ Karlsruhe - Leibniz Institute for Information Infrastructure.  All rights reserved.
data_416722-ICSD
_database_code_ICSD 416722
_audit_creation_date 2008-08-01
_chemical_name_systematic 'Terbium sodium iridium oxide (0.93/1.07/1/4)'
_chemical_formula_structural '(Tb0.93 Na0.07) Na Ir O4'
_chemical_formula_sum 'Ir1 Na1.07 O4 Tb0.93'
_chemical_name_structure_type Ca2IrO4
_exptl_crystal_density_diffrn 8.73
_cell_measurement_temperature 294.
_publ_section_title

;
The crystal growth and magnetic properties of the new iridates, Ln(1-x)
Na(1+x) Ir O4 (Ln = Gd - Er, Y; x = 0.04 - 0.25)
;
loop_
_citation_id
_citation_journal_full
_citation_year
_citation_journal_volume
_citation_page_first
_citation_page_last
_citation_journal_id_ASTM
primary 'Solid State Sciences' 2007 9 555 563 SSSCFJ
loop_
_publ_author_name
'Mugavero, S.J.'
'Smith, D.'
'zur Loye, H.C.'
_cell_length_a 9.4329(3)
_cell_length_b 9.4329(3)
_cell_length_c 3.1794(2)
_cell_angle_alpha 90.
_cell_angle_beta 90.
_cell_angle_gamma 120.
_cell_volume 245.
_cell_formula_units_Z 3
_symmetry_space_group_name_H-M 'P -6 2 m'
_symmetry_Int_Tables_number 189
_refine_ls_R_factor_all 0.0255
loop_
_symmetry_equiv_pos_site_id
_symmetry_equiv_pos_as_xyz
1 '-x, -x+y, -z'
2 'x-y, -y, -z'
3 'y, x, -z'
4 '-x, -x+y, z'
5 'x-y, -y, z'
6 'y, x, z'
7 '-x+y, -x, -z'
8 '-y, x-y, -z'
9 'x, y, -z'
10 '-x+y, -x, z'
11 '-y, x-y, z'
12 'x, y, z'
loop_
_atom_type_symbol
_atom_type_oxidation_number
Ir4+ 4.15
Tb3+ 3
Na1+ 1
O2- -2
loop_
_atom_site_label
_atom_site_type_symbol
_atom_site_symmetry_multiplicity
_atom_site_Wyckoff_symbol
_atom_site_fract_x
_atom_site_fract_y
_atom_site_fract_z
_atom_site_B_iso_or_equiv
_atom_site_occupancy
_atom_site_attached_hydrogens
Ir1 Ir4+ 3 f 0.32819(8) 0. 0. 0.00387(17) 1 0
Tb1 Tb3+ 2 d 0.3333 0.6667 0.5 0.0116(4) 1 0
Tb2 Tb3+ 3 g 0.7007(3) 0. 0.5 0.0083(4) 0.26 0
Na1 Na1+ 3 g 0.7007(3) 0. 0.5 0.0083(4) 0.74 0
Na2 Na1+ 1 a 0. 0. 0. 0.013(2) 1 0
O1 O2- 3 g 0.1914(13) 0. 0.5 0.006(2) 1 0
O2 O2- 3 g 0.4591(13) 0. 0.5 0.008(2) 1 0
O3 O2- 6 j 0.4555(11) 0.2434(11) 0. 0.0089(14) 1 0
loop_
_atom_site_aniso_label
_atom_site_aniso_type_symbol
_atom_site_aniso_U_11
_atom_site_aniso_U_22
_atom_site_aniso_U_33
_atom_site_aniso_U_12
_atom_site_aniso_U_13
_atom_site_aniso_U_23
Ir1 Ir4+ 0.0045(2) 0.0034(3) 0.0033(2) 0.00169(14) 0. 0.
Tb1 Tb3+ 0.0128(4) 0.0128(4) 0.0091(5) 0.0064(2) 0. 0.
Tb2 Tb3+ 0.0061(7) 0.0086(12) 0.0110(12) 0.0043(6) 0. 0.
Na1 Na1+ 0.0061(7) 0.0086(12) 0.0110(12) 0.0043(6) 0. 0.
Na2 Na1+ 0.012(4) 0.012(4) 0.015(5) 0.0059(18) 0. 0.
O1 O2- 0.007(4) 0.007(5) 0.005(5) 0.004(3) 0. 0.
O2 O2- 0.008(4) 0.014(6) 0.004(5) 0.007(3) 0. 0.
O3 O2- 0.005(3) 0.011(4) 0.006(3) 0.001(3) 0. 0.
#End of TTdata_416722-ICSD