
#(C) 2019 by FIZ Karlsruhe - Leibniz Institute for Information Infrastructure.  All rights reserved.
data_416956-ICSD
_database_code_ICSD 416956
_audit_creation_date 2016-08-01
_chemical_name_systematic 'Lithium sodium heptaoxotetraborate'
_chemical_formula_structural 'Li Na B4 O7'
_chemical_formula_sum 'B4 Li1 Na1 O7'
_chemical_name_structure_type LiNaB2O7
_exptl_crystal_density_diffrn 2.56
_cell_measurement_temperature 293.
_publ_section_title
'Crystal structure and phonon properties of noncentrosymmetric Li Na B4 O7'
loop_
_citation_id
_citation_journal_full
_citation_year
_citation_journal_volume
_citation_page_first
_citation_page_last
_citation_journal_id_ASTM
primary 'Journal of Solid State Chemistry' 2007 180 410 419 JSSCBI
loop_
_publ_author_name
'Maczka, M.'
'Waskowska, A.'
'Majchrowski, A.'
'Zmija, J.'
'Hanuza, J.'
'Peterson, G.A.'
'Keszler, D.A.'
_cell_length_a 13.325(3)
_cell_length_b 14.099(3)
_cell_length_c 10.243(2)
_cell_angle_alpha 90.
_cell_angle_beta 90.
_cell_angle_gamma 90.
_cell_volume 1924.34
_cell_formula_units_Z 16
_symmetry_space_group_name_H-M 'F d d 2'
_symmetry_Int_Tables_number 43
_refine_ls_R_factor_all 0.0438
loop_
_symmetry_equiv_pos_site_id
_symmetry_equiv_pos_as_xyz
1 'x+1/4, -y+1/4, z+1/4'
2 '-x+1/4, y+1/4, z+1/4'
3 '-x, -y, z'
4 'x, y, z'
5 'x+1/4, -y+3/4, z+3/4'
6 '-x+1/4, y+3/4, z+3/4'
7 '-x, -y+1/2, z+1/2'
8 'x, y+1/2, z+1/2'
9 'x+3/4, -y+1/4, z+3/4'
10 '-x+3/4, y+1/4, z+3/4'
11 '-x+1/2, -y, z+1/2'
12 'x+1/2, y, z+1/2'
13 'x+3/4, -y+3/4, z+1/4'
14 '-x+3/4, y+3/4, z+1/4'
15 '-x+1/2, -y+1/2, z'
16 'x+1/2, y+1/2, z'
loop_
_atom_type_symbol
_atom_type_oxidation_number
O2- -2
B3+ 3
O2- -2
B3+ 3
Na1+ 1
Li1+ 1
loop_
_atom_site_label
_atom_site_type_symbol
_atom_site_symmetry_multiplicity
_atom_site_Wyckoff_symbol
_atom_site_fract_x
_atom_site_fract_y
_atom_site_fract_z
_atom_site_B_iso_or_equiv
_atom_site_occupancy
_atom_site_attached_hydrogens
O1 O2- 16 b 0.07261(7) 0.20169(6) 0.01001(9) 0.01360(16) 1 0
O2 O2- 8 a 0.25 0.25 -0.00262(13) 0.0126(2) 1 0
O3 O2- 16 b 0.19539(7) 0.14101(6) 0.16430(10) 0.01534(17) 1 0
O4 O2- 16 b 0.13514(6) 0.30342(6) 0.16762(9) 0.01376(16) 1 0
B1 B3+ 16 b 0.16454(10) 0.22297(9) 0.08026(14) 0.0113(2) 1 0
B2 B3+ 16 b 0.04487(10) 0.12145(9) -0.05226(15) 0.0112(2) 1 0
O5 O2- 16 b 0.20527(6) 0.08274(6) 0.52862(9) 0.01227(15) 1 0
O6 O2- 8 a 0.25 0.25 0.51430(12) 0.0101(2) 1 0
O7 O2- 16 b 0.29003(7) 0.15258(6) 0.70206(9) 0.01159(15) 1 0
O8 O2- 16 b 0.11980(6) 0.20391(6) 0.66410(9) 0.01187(15) 1 0
B3 B3+ 16 b 0.21536(9) 0.17279(9) 0.59735(13) 0.00931(19) 1 0
B4 B3+ 16 b 0.12606(9) 0.04419(9) 0.46557(13) 0.00937(19) 1 0
Na1 Na1+ 16 b 0.10115(5) 0.23913(4) 0.37498(7) 0.02620(16) 1 0
Li1 Li1+ 16 b 0.0045(2) 0.3597(3) 0.1243(4) 0.0407(9) 1 0
loop_
_atom_site_aniso_label
_atom_site_aniso_type_symbol
_atom_site_aniso_U_11
_atom_site_aniso_U_22
_atom_site_aniso_U_33
_atom_site_aniso_U_12
_atom_site_aniso_U_13
_atom_site_aniso_U_23
O1 O2- 0.0128(3) 0.0124(3) 0.0156(4) 0.0016(3) -0.0050(3) -0.0040(3)
O2 O2- 0.0126(5) 0.0152(5) 0.0098(5) 0.0014(4) 0. 0.
O3 O2- 0.0101(3) 0.0167(4) 0.0192(4) -0.0015(3) -0.0040(3) 0.0058(3)
O4 O2- 0.0104(3) 0.0147(4) 0.0162(4) -0.0018(3) 0.0022(3) -0.0077(3)
B1 B3+ 0.0126(5) 0.0102(4) 0.0113(5) 0.0009(4) -0.0023(4) -0.0012(4)
B2 B3+ 0.0100(4) 0.0122(5) 0.0115(5) -0.0011(4) -0.0002(4) -0.0011(4)
O5 O2- 0.0105(3) 0.0118(3) 0.0145(4) 0.0011(3) -0.0025(3) -0.0047(3)
O6 O2- 0.0122(4) 0.0104(4) 0.0077(5) 0.0009(4) 0. 0.
O7 O2- 0.0119(3) 0.0120(3) 0.0109(3) -0.0026(3) -0.0034(3) 0.0030(3)
O8 O2- 0.0104(3) 0.0097(3) 0.0155(4) -0.0020(3) 0.0028(3) -0.0037(3)
B3 B3+ 0.0095(4) 0.0104(4) 0.0080(5) -0.0004(4) -0.0008(4) -0.0011(3)
B4 B3+ 0.0099(4) 0.0090(4) 0.0092(5) 0.0013(4) -0.0002(4) -0.0003(3)
Na1 Na1+ 0.0308(3) 0.0171(3) 0.0307(4) -0.0037(2) -0.0080(3) 0.0058(2)
Li1 Li1+ 0.0154(11) 0.072(2) 0.0342(18) -0.0124(13) -0.0087(11) 0.0326(18)
#End of TTdata_416956-ICSD