
#(C) 2019 by FIZ Karlsruhe - Leibniz Institute for Information Infrastructure.  All rights reserved.
data_416999-ICSD
_database_code_ICSD 416999
_audit_creation_date 2008-08-01
_chemical_name_systematic 'Trisodium pentaoxoosmate(VII)'
_chemical_formula_structural 'Na3 (Os O5)'
_chemical_formula_sum 'Na3 O5 Os1'
_exptl_crystal_density_diffrn 4.7
_cell_measurement_temperature 293.
_publ_section_title
'Synthesis, Crystal Structure and Magnetic Properties of Na3 Os O5'
loop_
_citation_id
_citation_journal_full
_citation_year
_citation_journal_volume
_citation_page_first
_citation_page_last
_citation_journal_id_ASTM
primary 'Zeitschrift fuer Anorganische und Allgemeine Chemie (1950) (DE)' 2006
632 2389 2394 ZAACAB
loop_
_publ_author_name
'Mogare, K.M.'
'Klein, W.'
'Schilder, H.'
'Lueken, H.'
'Jansen, M.'
_cell_length_a 5.5529(2)
_cell_length_b 5.5529(2)
_cell_length_c 13.4726(8)
_cell_angle_alpha 90.
_cell_angle_beta 90.
_cell_angle_gamma 120.
_cell_volume 359.77
_cell_formula_units_Z 3
_symmetry_space_group_name_H-M 'P 31 2 1'
_symmetry_Int_Tables_number 152
_refine_ls_R_factor_all 0.0198
loop_
_symmetry_equiv_pos_site_id
_symmetry_equiv_pos_as_xyz
1 'x-y, -y, -z+2/3'
2 '-x, -x+y, -z+1/3'
3 'y, x, -z'
4 '-x+y, -x, z+2/3'
5 '-y, x-y, z+1/3'
6 'x, y, z'
loop_
_atom_type_symbol
_atom_type_oxidation_number
Na1+ 1
Os7+ 7
O2- -2
loop_
_atom_site_label
_atom_site_type_symbol
_atom_site_symmetry_multiplicity
_atom_site_Wyckoff_symbol
_atom_site_fract_x
_atom_site_fract_y
_atom_site_fract_z
_atom_site_B_iso_or_equiv
_atom_site_occupancy
_atom_site_attached_hydrogens
Na1 Na1+ 3 b 0. 0.2765(5) 0.1667 0.0218(6) 1 0
Na2 Na1+ 6 c 0.2953(5) 0.9176(5) 0.08506(16) 0.0237(5) 1 0
Os1 Os7+ 3 a 0.61572(4) 0.61572(4) 0. 0.00921(7) 1 0
O1 O2- 3 a 0.3002(9) 0.3002(9) 0. 0.0185(11) 1 0
O2 O2- 6 c 0.6823(9) 0.8425(8) 0.1053(3) 0.0217(8) 1 0
O3 O2- 6 c 0.8200(9) 0.4834(9) 0.0649(3) 0.0221(9) 1 0
loop_
_atom_site_aniso_label
_atom_site_aniso_type_symbol
_atom_site_aniso_U_11
_atom_site_aniso_U_22
_atom_site_aniso_U_33
_atom_site_aniso_U_12
_atom_site_aniso_U_13
_atom_site_aniso_U_23
Na1 Na1+ 0.0270(17) 0.0162(11) 0.0256(14) 0.0135(9) -0.0092(11) -0.0046(5)
Na2 Na1+ 0.0337(14) 0.0250(11) 0.0215(9) 0.0215(10) -0.0028(9) -0.0036(8)
Os1 Os7+ 0.00921(9) 0.00921(9) 0.00996(9) 0.00518(8) -0.00042(4) 0.00042(4)
O1 O2- 0.0094(16) 0.0094(16) 0.028(3) -0.0018(19) -0.0036(11) 0.0036(11)
O2 O2- 0.031(2) 0.0176(17) 0.0197(16) 0.0145(15) -0.0067(15) -0.0053(14)
O3 O2- 0.027(2) 0.030(3) 0.0197(17) 0.022(2) -0.0034(15) 0.0016(15)
#End of TTdata_416999-ICSD