
#(C) 2019 by FIZ Karlsruhe - Leibniz Institute for Information Infrastructure.  All rights reserved.
data_417033-ICSD
_database_code_ICSD 417033
_audit_creation_date 2011-02-01
_chemical_name_systematic
'Barium sodium fluoride chloride bromide (6.8/0.2/12/1.3/0.7)'
_chemical_formula_structural 'Ba6.88 Na0.17 F12 (Cl1.39 Br0.61)'
_chemical_formula_sum 'Ba6.88 Br0.61 Cl1.39 F12 Na0.17'
_chemical_name_structure_type Ba7F12Cl2(distorted)
_exptl_crystal_density_diffrn 5.17
_cell_measurement_temperature 298.
_publ_section_title

;
Calcium free solid solutions in the system Ba7 F12 Cl2-x Brx (x<1.5), a single
component white phosphor host
;
loop_
_citation_id
_citation_journal_full
_citation_year
_citation_journal_volume
_citation_page_first
_citation_page_last
_citation_journal_id_ASTM
primary 'Journal of Chemical Crystallography' 2007 37 469 472 JCCYEV
loop_
_publ_author_name
'Penhouet, T.'
'Hagemann, H.'
'Kubel, F.'
'Rief, A.'
_cell_length_a 10.6024(10)
_cell_length_b 10.6024(10)
_cell_length_c 4.2034(4)
_cell_angle_alpha 90.
_cell_angle_beta 90.
_cell_angle_gamma 120.
_cell_volume 409.2
_cell_formula_units_Z 1
_symmetry_space_group_name_H-M 'P 63/m'
_symmetry_Int_Tables_number 176
_refine_ls_R_factor_all 0.017
loop_
_symmetry_equiv_pos_site_id
_symmetry_equiv_pos_as_xyz
1 '-x+y, -x, -z+1/2'
2 '-y, x-y, -z+1/2'
3 'x, y, -z+1/2'
4 'x-y, x, -z'
5 'y, -x+y, -z'
6 '-x, -y, -z'
7 'x-y, x, z+1/2'
8 'y, -x+y, z+1/2'
9 '-x, -y, z+1/2'
10 '-x+y, -x, z'
11 '-y, x-y, z'
12 'x, y, z'
loop_
_atom_type_symbol
_atom_type_oxidation_number
Ba2+ 2
F1- -1
Cl1- -1
Br1- -1
Na1+ 1
loop_
_atom_site_label
_atom_site_type_symbol
_atom_site_symmetry_multiplicity
_atom_site_Wyckoff_symbol
_atom_site_fract_x
_atom_site_fract_y
_atom_site_fract_z
_atom_site_B_iso_or_equiv
_atom_site_occupancy
_atom_site_attached_hydrogens
Ba1 Ba2+ 6 h .402955(16) .294136(16) .25 .00923(5) 1. 0
Ba2 Ba2+ 2 a . . .25 .00778(12) .4381(12) 0
F1 F1- 6 h .1157(5) .2137(3) .25 .003 .5 0
F2 F1- 6 h .1513(5) .2744(3) .25 .003 .5 0
F3 F1- 6 h .43318(14) .05668(14) .25 .035 1. 0
Cl1 Cl1- 2 c .33333 .66666 .25 .003 .696(3) 0
Br1 Br1- 2 c .33333 .66666 .25 .003 .304(3) 0
Na1 Na1+ 2 b . . . .003 .083(5) 0
loop_
_atom_site_aniso_label
_atom_site_aniso_type_symbol
_atom_site_aniso_U_11
_atom_site_aniso_U_22
_atom_site_aniso_U_33
_atom_site_aniso_U_12
_atom_site_aniso_U_13
_atom_site_aniso_U_23
Ba1 Ba2+ .01524(9) .01453(9) .01257(9) .00900(7) . .
Ba2 Ba2+ .0109(2) .0109(2) .0402(5) .00546(12) . .
F1 F1- .017(2) .014(2) .0291(11) .009(2) . .
F2 F1- .017(2) .014(2) .0291(11) .009(2) . .
F3 F1- .0144(7) .0181(7) .0176(8) .0052(6) . .
Cl1 Cl1- .0175(3) .0175(3) .0149(4) .00876(15) . .
Br1 Br1- .0175(3) .0175(3) .0149(4) .00876(15) . .
Na1 Na1+ .0109(2) .0109(2) .0402(5) .00546(12) . .
#End of TTdata_417033-ICSD