
#(C) 2019 by FIZ Karlsruhe - Leibniz Institute for Information Infrastructure.  All rights reserved.
data_417289-ICSD
_database_code_ICSD 417289
_audit_creation_date 2008-02-01
_chemical_name_systematic 'Trisodium fluorotungstate'
_chemical_formula_structural 'Na3 F (W O4)'
_chemical_formula_sum 'F1 Na3 O4 W1'
_chemical_name_structure_type Ca2NaFSiO4
_exptl_crystal_density_diffrn 4.13
_publ_section_title

;
Na3 F [W O4]: A sodium fluoride ortho-oxotungstate(VI) with strands of
face-shared fluoride-centered sodium octahedra according to {[F Na6/2](2+)}
;
loop_
_citation_id
_citation_journal_full
_citation_year
_citation_journal_volume
_citation_page_first
_citation_page_last
_citation_journal_id_ASTM
primary 'Zeitschrift fuer Anorganische und Allgemeine Chemie (1950) (DE)' 2007
633 524 526 ZAACAB
loop_
_publ_author_name
'Hartenbach, I.'
'Schleid, T.'
_cell_length_a 5.5959(5)
_cell_length_b 7.5102(7)
_cell_length_c 12.8598(9)
_cell_angle_alpha 90.
_cell_angle_beta 90.
_cell_angle_gamma 90.
_cell_volume 540.45
_cell_formula_units_Z 4
_symmetry_space_group_name_H-M 'P n m a'
_symmetry_Int_Tables_number 62
_refine_ls_R_factor_all 0.0252
loop_
_symmetry_equiv_pos_site_id
_symmetry_equiv_pos_as_xyz
1 'x+1/2, y, -z+1/2'
2 'x, -y+1/2, z'
3 '-x+1/2, y+1/2, z+1/2'
4 '-x, -y, -z'
5 '-x+1/2, -y, z+1/2'
6 '-x, y+1/2, -z'
7 'x+1/2, -y+1/2, -z+1/2'
8 'x, y, z'
loop_
_atom_type_symbol
_atom_type_oxidation_number
Na1+ 1
F1- -1
W6+ 6
O2- -2
loop_
_atom_site_label
_atom_site_type_symbol
_atom_site_symmetry_multiplicity
_atom_site_Wyckoff_symbol
_atom_site_fract_x
_atom_site_fract_y
_atom_site_fract_z
_atom_site_B_iso_or_equiv
_atom_site_occupancy
_atom_site_attached_hydrogens
Na1 Na1+ 4 c 0.2254(4) 0.25 0.8936(2) 0.0170(4) 1 0
Na2 Na1+ 8 d 0.2286(2) 0.5389(2) 0.17902(13) 0.0171(3) 1 0
F1 F1- 4 c 0.0023(5) 0.25 0.7322(2) 0.0174(5) 1 0
W1 W6+ 4 c 0.20953(3) 0.25 0.416130(12) 0.01055(8) 1 0
O1 O2- 4 c 0.3946(9) 0.25 0.0796(3) 0.0406(13) 1 0
O2 O2- 4 c 0.3259(7) 0.25 0.5440(3) 0.0198(7) 1 0
O3 O2- 8 d 0.3122(5) 0.0578(4) 0.3494(2) 0.0245(6) 1 0
loop_
_atom_site_aniso_label
_atom_site_aniso_type_symbol
_atom_site_aniso_U_11
_atom_site_aniso_U_22
_atom_site_aniso_U_33
_atom_site_aniso_U_12
_atom_site_aniso_U_13
_atom_site_aniso_U_23
Na1 Na1+ 0.0168(9) 0.0120(9) 0.0221(10) 0. 0.0027(7) 0.
Na2 Na1+ 0.0161(6) 0.0210(6) 0.0143(6) 0.0000(5) -0.0005(5) 0.0059(6)
F1 F1- 0.0110(12) 0.0238(13) 0.0174(12) 0. -0.0017(9) 0.
W1 W6+ 0.01394(11) 0.00928(10) 0.00843(10) 0. -0.00112(5) 0.
O1 O2- 0.015(2) 0.072(4) 0.035(2) 0. -0.0002(16) 0.
O2 O2- 0.0287(19) 0.0220(16) 0.0088(14) 0. -0.0027(12) 0.
O3 O2- 0.0388(16) 0.0150(11) 0.0197(12) 0.0049(10) -0.0011(10) -0.0077(10)
#End of TTdata_417289-ICSD