
#(C) 2019 by FIZ Karlsruhe - Leibniz Institute for Information Infrastructure.  All rights reserved.
data_417322-ICSD
_database_code_ICSD 417322
_audit_creation_date 2009-02-01
_chemical_name_systematic 'Trisodium dodecamolybdophosphate(V) hexadecahydrate'
_chemical_formula_structural 'Na3 (P Mo12 O40) (H2 O)16'
_chemical_formula_sum 'H32 Mo12 Na3 O56 P1'
_exptl_crystal_density_diffrn 3.17
_cell_measurement_temperature 100.
_publ_section_title
'Crystal structure of sodium 12-molybdophosphate hexadecahydrate'
loop_
_citation_id
_citation_journal_full
_citation_year
_citation_journal_volume
_citation_page_first
_citation_page_last
_citation_journal_id_ASTM
primary 'Analytical Sciences: X-Ray Structure Analysis Online' 2007 23 x137 x138
XSAOAF
loop_
_publ_author_name
'Maleki, F.'
'Mahjoub, A.R.'
'Pourayoubi, M.'
_cell_length_a 11.4703(4)
_cell_length_b 15.1849(6)
_cell_length_c 13.7083(5)
_cell_angle_alpha 90.
_cell_angle_beta 106.9020(10)
_cell_angle_gamma 90.
_cell_volume 2284.51
_cell_formula_units_Z 2
_symmetry_space_group_name_H-M 'P 1 21/m 1'
_symmetry_Int_Tables_number 11
_refine_ls_R_factor_all 0.0319
loop_
_symmetry_equiv_pos_site_id
_symmetry_equiv_pos_as_xyz
1 'x, -y+1/2, z'
2 '-x, -y, -z'
3 '-x, y+1/2, -z'
4 'x, y, z'
loop_
_atom_type_symbol
_atom_type_oxidation_number
Mo6+ 6
P5+ 5
O2- -2
Na1+ 1
O2- -2
H1+ 1
O2- -2
H1+ 1
O2- -2
H1+ 1
O2- -2
H1+ 1
O2- -2
H1+ 1
O2- -2
H1+ 1
O2- -2
H1+ 1
O2- -2
H1+ 1
O2- -2
H1+ 1
O2- -2
H1+ 1
O2- -2
H1+ 1
loop_
_atom_site_label
_atom_site_type_symbol
_atom_site_symmetry_multiplicity
_atom_site_Wyckoff_symbol
_atom_site_fract_x
_atom_site_fract_y
_atom_site_fract_z
_atom_site_B_iso_or_equiv
_atom_site_occupancy
_atom_site_attached_hydrogens
Mo1 Mo6+ 4 f 0.49590(3) 0.36390(2) 0.08942(3) 0.03001(8) 1 0
Mo2 Mo6+ 4 f 0.78255(3) 0.36199(3) 0.02140(3) 0.03797(9) 1 0
Mo3 Mo6+ 4 f 0.76120(3) 0.48388(2) 0.24815(2) 0.03048(8) 1 0
Mo4 Mo6+ 2 e 1.02696(4) 0.25 0.16977(4) 0.03497(11) 1 0
Mo5 Mo6+ 4 f 1.00599(3) 0.37191(2) 0.39598(3) 0.03191(8) 1 0
Mo6 Mo6+ 4 f 0.73959(3) 0.37098(2) 0.45618(2) 0.03021(8) 1 0
Mo7 Mo6+ 2 e 0.47221(4) 0.25 0.29633(4) 0.04186(13) 1 0
P1 P5+ 2 e 0.75565(10) 0.25 0.23996(9) 0.0211(2) 1 0
O1 O2- 4 f 0.3906(2) 0.42931(17) 0.0154(2) 0.0323(5) 1 0
O2 O2- 4 f 0.7770(3) 0.4292(2) -0.0769(2) 0.0365(6) 1 0
O3 O2- 4 f 0.7503(2) 0.59274(17) 0.22602(19) 0.0304(5) 1 0
O4 O2- 2 e 1.1653(3) 0.25 0.1537(3) 0.0344(8) 1 0
O5 O2- 4 f 1.1438(2) 0.41074(18) 0.4595(2) 0.0338(6) 1 0
O6 O2- 4 f 0.7126(3) 0.41017(18) 0.56245(19) 0.0326(5) 1 0
O7 O2- 2 e 0.3600(4) 0.25 0.3521(3) 0.0471(12) 1 0
O8 O2- 4 f 0.6152(2) 0.35565(16) 0.02095(18) 0.0261(5) 1 0
O9 O2- 4 f 0.6000(2) 0.44351(16) 0.18099(18) 0.0260(5) 1 0
O10 O2- 4 f 0.8014(2) 0.44023(17) 0.13210(18) 0.0264(5) 1 0
O11 O2- 2 e 0.4325(3) 0.25 0.0324(3) 0.0251(7) 1 0
O12 O2- 4 f 0.4191(2) 0.33803(18) 0.19572(19) 0.0297(5) 1 0
O13 O2- 2 e 0.6161(3) 0.25 0.1971(2) 0.0222(6) 1 0
O14 O2- 2 e 0.8126(3) 0.25 0.1510(2) 0.0227(6) 1 0
O15 O2- 4 f 0.7972(2) 0.33256(15) 0.30536(17) 0.0224(4) 1 0
O16 O2- 4 f 0.9517(2) 0.33714(17) 0.06503(18) 0.0270(5) 1 0
O17 O2- 2 e 0.7586(3) 0.25 -0.0480(3) 0.0272(7) 1 0
O18 O2- 4 f 0.7227(2) 0.47549(16) 0.37437(18) 0.0262(5) 1 0
O19 O2- 4 f 0.9300(2) 0.47510(16) 0.32440(19) 0.0276(5) 1 0
O20 O2- 4 f 1.0375(2) 0.33571(17) 0.26981(18) 0.0265(5) 1 0
O21 O2- 4 f 0.9145(2) 0.38874(17) 0.48870(18) 0.0281(5) 1 0
O22 O2- 2 e 1.0227(3) 0.25 0.4296(3) 0.0268(7) 1 0
O23 O2- 4 f 0.5843(2) 0.33455(19) 0.37887(19) 0.0305(5) 1 0
O24 O2- 2 e 0.7734(3) 0.25 0.4893(3) 0.0267(7) 1 0
Na1 Na1+ 2 e 0.75784(18) 0.75 0.24854(16) 0.0300(4) 1 0
Na2 Na1+ 4 f 0.74093(16) 0.41371(13) 0.74094(14) 0.0309(4) 0.8 0
Na3 Na1+ 4 f 0.5537(6) 0.5009(5) 0.6154(5) 0.0258(14) 0.2 0
O25 O2- 2 e 0.7973(3) 0.75 0.0844(3) 0.0311(7) 1 0
H1 H1+ 4 f 0.8324 0.7919 0.063 0.037 1 0
O26 O2- 2 e 0.9751(4) 0.75 0.3272(3) 0.0386(9) 1 0
H2 H1+ 4 f 1.0007 0.702 0.3089 0.046 1 0
O27 O2- 2 e 0.5375(3) 0.75 0.1860(3) 0.0355(8) 1 0
H3 H1+ 4 f 0.5154 0.7944 0.2139 0.043 1 0
O28 O2- 2 e 0.7254(4) 0.75 0.4034(3) 0.0501(11) 1 0
H4 H1+ 4 f 0.6888 0.7915 0.424 0.06 1 0
O29 O2- 2 e 0.7264(4) 0.25 0.7390(3) 0.0376(9) 1 0
H5 H1+ 4 f 0.6869 0.2151 0.7662 0.045 1 0
O30 O2- 4 f 0.7382(4) 0.5591(3) 0.7232(4) 0.0569(11) 0.85 0
H6 H1+ 4 f 0.804 0.5865 0.7269 0.068 1 0
H7 H1+ 4 f 0.7189 0.6096 0.7405 0.068 1 0
O31 O2- 4 f 0.7773(14) 0.5632(10) 0.7766(13) 0.019(3) 0.15 0
O32 O2- 4 f 0.5314(3) 0.4145(2) 0.7375(2) 0.0419(7) 1 0
H8 H1+ 4 f 0.6057 0.4165 0.7728 0.05 1 0
H9 H1+ 4 f 0.508 0.4555 0.7696 0.05 1 0
O33 O2- 4 f 0.9469(3) 0.3981(2) 0.7562(3) 0.0524(8) 1 0
H10 H1+ 4 f 0.9702 0.4453 0.7342 0.063 1 0
H11 H1+ 4 f 0.9795 0.3931 0.8201 0.063 1 0
O34 O2- 2 e 0.5105(4) 0.25 0.5780(3) 0.0408(9) 1 0
H12 H1+ 2 e 0.5877 0.25 0.6011 0.049 1 0
H13 H1+ 2 e 0.4996 0.25 0.6368 0.049 1 0
O35 O2- 4 f 0.5787(3) 0.5831(2) 0.4882(3) 0.0478(8) 1 0
H14 H1+ 4 f 0.5496 0.6168 0.4374 0.057 1 0
H15 H1+ 4 f 0.6499 0.5789 0.4814 0.057 1 0
O36 O2- 4 f 1.0882(4) 0.3917(3) 0.9486(3) 0.0668(12) 1 0
H16 H1+ 4 f 1.0714 0.3803 1.0037 0.08 1 0
H17 H1+ 4 f 1.1491 0.4257 0.9708 0.08 1 0
loop_
_atom_site_aniso_label
_atom_site_aniso_type_symbol
_atom_site_aniso_U_11
_atom_site_aniso_U_22
_atom_site_aniso_U_33
_atom_site_aniso_U_12
_atom_site_aniso_U_13
_atom_site_aniso_U_23
Mo1 Mo6+ 0.02465(14) 0.02685(15) 0.03442(16) 0.00242(11) 0.00212(12) 0.00031(12)
Mo2 Mo6+ 0.03982(18) 0.0452(2) 0.03050(16) 0.00935(15) 0.01273(14) 0.00994(14)
Mo3 Mo6+ 0.03201(16) 0.02583(15) 0.02963(15) -0.00256(12) 0.00274(12)
0.00327(11)
Mo4 Mo6+ 0.0243(2) 0.0506(3) 0.0298(2) 0. 0.00753(17) 0.
Mo5 Mo6+ 0.02362(14) 0.03313(17) 0.03435(16) -0.00056(12) 0.00114(12)
-0.00643(13)
Mo6 Mo6+ 0.03766(17) 0.02915(16) 0.02651(14) 0.00018(12) 0.01354(12)
-0.00290(11)
Mo7 Mo6+ 0.0229(2) 0.0775(4) 0.0262(2) 0. 0.00873(17) 0.
P1 P5+ 0.0194(5) 0.0236(5) 0.0197(5) 0. 0.0047(4) 0.
O1 O2- 0.0266(12) 0.0285(13) 0.0363(13) 0.0030(10) 0.0004(10) 0.0004(11)
O2 O2- 0.0399(14) 0.0424(15) 0.0286(13) 0.0079(12) 0.0123(11) 0.0083(11)
O3 O2- 0.0337(13) 0.0244(12) 0.0295(12) -0.0019(10) 0.0037(10) 0.0019(10)
O4 O2- 0.0231(17) 0.053(2) 0.0269(17) 0. 0.0074(14) 0.
O5 O2- 0.0257(12) 0.0335(14) 0.0369(14) -0.0026(10) 0.0008(10) -0.0079(11)
O6 O2- 0.0424(14) 0.0313(13) 0.0271(12) 0.0021(11) 0.0147(11) -0.0022(10)
O7 O2- 0.0239(18) 0.094(4) 0.0243(18) 0. 0.0089(15) 0.
O8 O2- 0.0236(11) 0.0291(12) 0.0248(11) 0.0022(9) 0.0058(9) 0.0004(9)
O9 O2- 0.0235(11) 0.0253(12) 0.0274(11) 0.0016(9) 0.0044(9) -0.0006(9)
O10 O2- 0.0253(11) 0.0291(12) 0.0236(11) 0.0018(9) 0.0050(9) 0.0015(9)
O11 O2- 0.0227(15) 0.0268(16) 0.0231(15) 0. 0.0027(12) 0.
O12 O2- 0.0219(11) 0.0387(14) 0.0283(12) 0.0014(10) 0.0070(9) -0.0031(10)
O13 O2- 0.0179(14) 0.0259(16) 0.0218(15) 0. 0.0045(12) 0.
O14 O2- 0.0209(14) 0.0271(16) 0.0194(14) 0. 0.0047(12) 0.
O15 O2- 0.0228(10) 0.0230(11) 0.0201(10) 0.0011(9) 0.0042(8) -0.0003(8)
O16 O2- 0.0228(11) 0.0318(12) 0.0269(11) -0.0015(9) 0.0078(9) 0.0013(10)
O17 O2- 0.0262(16) 0.0336(18) 0.0221(15) 0. 0.0073(13) 0.
O18 O2- 0.0269(11) 0.0259(12) 0.0254(11) 0.0016(9) 0.0072(9) 0.0003(9)
O19 O2- 0.0245(11) 0.0268(12) 0.0291(12) -0.0007(9) 0.0042(9) -0.0006(10)
O20 O2- 0.0218(11) 0.0298(12) 0.0264(11) 0.0004(9) 0.0047(9) 0.0006(10)
O21 O2- 0.0276(12) 0.0311(13) 0.0233(11) 0.0024(10) 0.0036(9) -0.0033(10)
O22 O2- 0.0251(16) 0.0269(17) 0.0255(16) 0. 0.0030(13) 0.
O23 O2- 0.0261(12) 0.0403(14) 0.0251(11) -0.0001(10) 0.0074(9) -0.0026(10)
O24 O2- 0.0299(17) 0.0259(16) 0.0239(16) 0. 0.0075(13) 0.
Na1 Na1+ 0.0275(10) 0.0273(10) 0.0338(10) 0. 0.0066(8) 0.
Na2 Na1+ 0.0303(9) 0.0343(10) 0.0291(9) -0.0030(7) 0.0100(7) -0.0011(7)
Na3 Na1+ 0.029(3) 0.029(3) 0.025(3) -0.012(3) 0.017(3) -0.015(3)
O25 O2- 0.0263(17) 0.0337(19) 0.0321(18) 0. 0.0069(14) 0.
O26 O2- 0.0318(19) 0.044(2) 0.036(2) 0. 0.0032(16) 0.
O27 O2- 0.0248(17) 0.052(2) 0.0294(18) 0. 0.0079(14) 0.
O28 O2- 0.039(2) 0.072(3) 0.036(2) 0. 0.0069(18) 0.
O29 O2- 0.041(2) 0.037(2) 0.037(2) 0. 0.0154(17) 0.
O30 O2- 0.052(2) 0.070(3) 0.060(3) -0.026(2) 0.032(2) -0.025(2)
O32 O2- 0.0330(14) 0.0410(16) 0.0543(18) -0.0032(12) 0.0168(13) -0.0147(14)
O33 O2- 0.057(2) 0.058(2) 0.0448(17) 0.0164(17) 0.0193(15) 0.0164(16)
O34 O2- 0.035(2) 0.051(3) 0.036(2) 0. 0.0113(17) 0.
O35 O2- 0.0480(17) 0.0470(18) 0.0523(18) 0.0162(14) 0.0207(15) 0.0051(15)
O36 O2- 0.070(2) 0.071(2) 0.079(3) 0.037(2) 0.053(2) 0.042(2)
#End of TTdata_417322-ICSD