
#(C) 2019 by FIZ Karlsruhe - Leibniz Institute for Information Infrastructure.  All rights reserved.
data_417524-ICSD
_database_code_ICSD 417524
_audit_creation_date 2008-02-01
_chemical_name_systematic 'Disodium dichromate dihydrate'
_chemical_formula_structural 'Na2 (Cr2 O7) (H2 O)2'
_chemical_formula_sum 'H4 Cr2 Na2 O9'
_chemical_name_structure_type Na2Cr2O7(H2O)2
_exptl_crystal_density_diffrn 2.37
_cell_measurement_temperature 173.
_publ_section_title

;
Synthesis methods for Ce (Cr O4)2 * x H2 O and crystal structures of K2 Cr S
O7, (N H4)2 Cr2 O7 and Na2 Cr2 O7 * 2 H2 O
;
loop_
_citation_id
_citation_journal_full
_citation_year
_citation_journal_volume
_citation_page_first
_citation_page_last
_citation_journal_id_ASTM
primary 'Zeitschrift fuer Naturforschung, B: A Journal of Chemical Sciences'
2007 62 771 777 ZNBSEN
loop_
_publ_author_name
'Casari, B.M.'
'Eriksson, A.K.'
'Langer, V.'
_cell_length_a 6.1216(1)
_cell_length_b 10.7868(1)
_cell_length_c 12.7175(1)
_cell_angle_alpha 90.
_cell_angle_beta 95.080(1)
_cell_angle_gamma 90.
_cell_volume 836.47
_cell_formula_units_Z 4
_symmetry_space_group_name_H-M 'P 1 21 1'
_symmetry_Int_Tables_number 4
_refine_ls_R_factor_all 0.055
loop_
_symmetry_equiv_pos_site_id
_symmetry_equiv_pos_as_xyz
1 '-x, y+1/2, -z'
2 'x, y, z'
loop_
_atom_type_symbol
_atom_type_oxidation_number
Cr6+ 6
O2- -2
Na1+ 1
O2- -2
H1+ 1
loop_
_atom_site_label
_atom_site_type_symbol
_atom_site_symmetry_multiplicity
_atom_site_Wyckoff_symbol
_atom_site_fract_x
_atom_site_fract_y
_atom_site_fract_z
_atom_site_B_iso_or_equiv
_atom_site_occupancy
_atom_site_attached_hydrogens
Cr1 Cr6+ 2 a 0.16238(7) 0.87959(5) 0.01314(4) 0.01190(10) 1 0
Cr2 Cr6+ 2 a -0.15080(7) 0.88170(5) -0.19530(4) 0.01179(10) 1 0
Cr3 Cr6+ 2 a -0.44280(7) 0.88845(5) -0.66718(4) 0.01285(10) 1 0
Cr4 Cr6+ 2 a -0.64625(8) 0.93412(5) -0.45268(4) 0.01234(11) 1 0
O1 O2- 2 a 0.1168(4) 0.8523(2) -0.12625(17) 0.0150(5) 1 0
O2 O2- 2 a 0.4178(4) 0.8500(2) 0.04851(19) 0.0197(5) 1 0
O3 O2- 2 a -0.0025(4) 0.7914(3) 0.07330(19) 0.0207(5) 1 0
O4 O2- 2 a 0.1098(4) 1.0240(2) 0.0345(2) 0.0185(5) 1 0
O5 O2- 2 a -0.3231(4) 0.7802(3) -0.1556(2) 0.0224(6) 1 0
O6 O2- 2 a -0.1210(3) 0.8702(3) -0.31991(17) 0.0185(5) 1 0
O7 O2- 2 a -0.2203(4) 1.0217(2) -0.1674(2) 0.0199(5) 1 0
O8 O2- 2 a -0.4310(3) 0.8737(3) -0.52578(17) 0.0176(4) 1 0
O9 O2- 2 a -0.6142(4) 0.7866(3) -0.71979(19) 0.0209(5) 1 0
O10 O2- 2 a -0.5176(4) 1.0285(2) -0.7013(2) 0.0229(5) 1 0
O11 O2- 2 a -0.1970(4) 0.8598(2) -0.69889(18) 0.0192(5) 1 0
O12 O2- 2 a -0.8811(4) 0.9004(2) -0.51461(19) 0.0197(5) 1 0
O13 O2- 2 a -0.6237(4) 0.8709(3) -0.33601(18) 0.0227(5) 1 0
O14 O2- 2 a -0.6191(4) 1.0840(2) -0.4433(2) 0.0209(5) 1 0
Na1 Na1+ 2 a 0.3165(2) 0.69846(13) -0.22544(11) 0.0169(3) 1 0
Na2 Na1+ 2 a -0.1194(2) 0.73011(13) -0.46966(11) 0.0188(3) 1 0
Na3 Na1+ 2 a 0.3463(2) 0.18520(13) 0.98212(11) 0.0186(3) 1 0
Na4 Na1+ 2 a 0.0359(2) 0.69705(13) 0.24688(11) 0.0174(3) 1 0
O15 O2- 2 a -0.8665(4) 0.6218(2) -0.5746(2) 0.0195(5) 1 0
O16 O2- 2 a 0.3462(4) 0.5794(2) -0.0688(2) 0.0197(5) 1 0
O17 O2- 2 a -0.0150(4) 0.6035(2) -0.3108(2) 0.0222(5) 1 0
O18 O2- 2 a 0.3082(4) 0.1030(2) 0.8070(2) 0.0200(5) 1 0
H1 H1+ 2 a -0.874(8) 0.549(3) -0.560(4) 0.044(6) 1 0
H2 H1+ 2 a -0.738(5) 0.645(5) -0.572(4) 0.044(6) 1 0
H3 H1+ 2 a 0.231(5) 0.580(5) -0.043(4) 0.044(6) 1 0
H4 H1+ 2 a 0.392(8) 0.508(3) -0.070(4) 0.044(6) 1 0
H5 H1+ 2 a 0.000(8) 0.528(3) -0.330(4) 0.044(6) 1 0
H6 H1+ 2 a -0.142(5) 0.604(5) -0.287(4) 0.044(6) 1 0
H7 H1+ 2 a 0.303(8) 0.031(3) 0.793(4) 0.044(6) 1 0
H8 H1+ 2 a 0.405(6) 0.139(5) 0.778(4) 0.044(6) 1 0
loop_
_atom_site_aniso_label
_atom_site_aniso_type_symbol
_atom_site_aniso_U_11
_atom_site_aniso_U_22
_atom_site_aniso_U_33
_atom_site_aniso_U_12
_atom_site_aniso_U_13
_atom_site_aniso_U_23
Cr1 Cr6+ 0.0114(2) 0.0116(2) 0.0126(2) -0.0008(2) 0.00045(16) -0.0006(2)
Cr2 Cr6+ 0.0115(2) 0.0118(2) 0.0120(2) 0.0002(2) 0.00103(16) 0.0007(2)
Cr3 Cr6+ 0.0107(2) 0.0144(2) 0.0135(2) -0.0005(2) 0.00116(16) 0.0010(2)
Cr4 Cr6+ 0.0113(2) 0.0127(2) 0.0130(2) 0.00019(19) 0.00052(17) 0.00075(19)
O1 O2- 0.0146(10) 0.0186(12) 0.0118(10) 0.0025(8) 0.0014(8) -0.0012(8)
O2 O2- 0.0161(11) 0.0210(13) 0.0210(12) 0.0054(9) -0.0045(9) -0.0038(9)
O3 O2- 0.0227(12) 0.0228(13) 0.0165(12) -0.0072(10) 0.0015(10) 0.0035(10)
O4 O2- 0.0179(11) 0.0151(11) 0.0226(12) -0.0021(9) 0.0022(10) -0.0044(10)
O5 O2- 0.0182(12) 0.0265(14) 0.0218(13) -0.0087(10) -0.0026(10) 0.0063(11)
O6 O2- 0.0175(10) 0.0247(14) 0.0136(10) 0.0039(10) 0.0021(8) -0.0024(10)
O7 O2- 0.0187(12) 0.0182(12) 0.0228(13) 0.0061(10) 0.0021(10) -0.0004(10)
O8 O2- 0.0172(10) 0.0223(12) 0.0133(10) 0.0029(11) 0.0016(8) 0.0003(11)
O9 O2- 0.0188(12) 0.0268(13) 0.0170(12) -0.0091(10) 0.0002(10) -0.0011(11)
O10 O2- 0.0225(13) 0.0196(13) 0.0279(14) 0.0025(10) 0.0085(11) 0.0050(11)
O11 O2- 0.0147(10) 0.0221(14) 0.0209(11) 0.0016(9) 0.0023(9) -0.0048(10)
O12 O2- 0.0151(10) 0.0221(14) 0.0215(11) -0.0016(10) -0.0011(9) -0.0001(10)
O13 O2- 0.0209(11) 0.0288(15) 0.0188(11) 0.0042(11) 0.0044(9) 0.0092(12)
O14 O2- 0.0189(12) 0.0161(12) 0.0275(14) 0.0010(10) 0.0012(10) -0.0034(10)
Na1 Na1+ 0.0168(6) 0.0165(7) 0.0176(7) 0.0006(5) 0.0021(5) 0.0000(6)
Na2 Na1+ 0.0185(7) 0.0172(7) 0.0205(7) -0.0009(6) 0.0007(6) -0.0022(6)
Na3 Na1+ 0.0175(7) 0.0173(7) 0.0207(7) -0.0021(5) 0.0001(5) -0.0013(5)
Na4 Na1+ 0.0146(6) 0.0189(7) 0.0183(7) -0.0009(5) 0.0003(5) -0.0006(5)
O15 O2- 0.0146(10) 0.0186(12) 0.0118(10) 0.0025(8) 0.0014(8) -0.0012(8)
O16 O2- 0.0182(12) 0.0265(14) 0.0218(13) -0.0087(10) -0.0026(10) 0.0063(11)
O17 O2- 0.0172(10) 0.0223(12) 0.0133(10) 0.0029(11) 0.0016(8) 0.0003(11)
O18 O2- 0.0151(10) 0.0221(14) 0.0215(11) -0.0016(10) -0.0011(9) -0.0001(10)
#End of TTdata_417524-ICSD