
#(C) 2019 by FIZ Karlsruhe - Leibniz Institute for Information Infrastructure.  All rights reserved.
data_417852-ICSD
_database_code_ICSD 417852
_audit_creation_date 2007-08-01
_chemical_name_systematic 'Sodium potassium tris(pentaoxotriborate)'
_chemical_formula_structural '(Na0.8 K0.2) K2 (B3 O5)3'
_chemical_formula_sum 'B9 K2.2 Na0.8 O15'
_chemical_name_structure_type KB3O5
_exptl_crystal_density_diffrn 2.34
_publ_section_title

;
X-ray powder diffraction studies and thermal behaviour of Na K2 B9 O15, Na
(Na.17 K.83)2 B9 O15 and (Na.80 K.20) K2 B9 O15
;
loop_
_citation_id
_citation_journal_full
_citation_year
_citation_journal_volume
_citation_page_first
_citation_page_last
_citation_journal_id_ASTM
primary 'Journal of Solid State Chemistry' 2006 179 2954 2963 JSSCBI
loop_
_publ_author_name
'Bubnova, R.'
'Albert, B.'
'Georgievskaya, M.'
'Krzhizhanovskaya, M.'
'Hofmann, K.'
'Filatov, S.'
_cell_length_a 9.1534(1)
_cell_length_b 6.6296(7)
_cell_length_c 20.7422(3)
_cell_angle_alpha 90
_cell_angle_beta 94.071(1)
_cell_angle_gamma 90
_cell_volume 1255.53
_cell_formula_units_Z 4
_symmetry_space_group_name_H-M 'P 1 21/c 1'
_symmetry_Int_Tables_number 14
_refine_ls_R_factor_all 0.023
loop_
_symmetry_equiv_pos_site_id
_symmetry_equiv_pos_as_xyz
1 'x, -y+1/2, z+1/2'
2 '-x, -y, -z'
3 '-x, y+1/2, -z+1/2'
4 'x, y, z'
loop_
_atom_type_symbol
_atom_type_oxidation_number
K1+ 1
Na1+ 1
O2- -2
B3+ 3
loop_
_atom_site_label
_atom_site_type_symbol
_atom_site_symmetry_multiplicity
_atom_site_Wyckoff_symbol
_atom_site_fract_x
_atom_site_fract_y
_atom_site_fract_z
_atom_site_B_iso_or_equiv
_atom_site_occupancy
_atom_site_attached_hydrogens
K1 K1+ 4 e 0.4082(2) 0.1842(3) 0.8817(1) 2.69(1) 1. 0
K2 K1+ 4 e 0.2214(2) 0.1953(3) 1.0344(1) 2.59(1) 1. 0
K3 K1+ 4 e 0.0686(4) 0.5085(5) 0.7560(2) 2.77(1) 0.20(1) 0
Na1 Na1+ 4 e 0.0686(4) 0.5085(5) 0.7560(2) 2.77(1) 0.80(1) 0
O1 O2- 4 e 0.3421(6) 0.7900(10) 1.0353(3) 1.57(5) 1. 0
O2 O2- 4 e 0.2273(7) 0.8973(9) 0.9318(3) 1.57(5) 1. 0
O3 O2- 4 e 0.0698(7) 0.6545(10) 0.8836(3) 1.57(5) 1. 0
O4 O2- 4 e 0.4630(7) 0.7677(9) 0.9365(3) 1.57(5) 1. 0
O5 O2- 4 e 0.2603(7) 0.5486(9) 0.9580(3) 1.57(5) 1. 0
O6 O2- 4 e 0.6150(6) 0.7706(9) 0.8456(3) 1.57(5) 1. 0
O7 O2- 4 e 0.5308(6) 0.6026(9) 0.7513(3) 1.57(5) 1. 0
O8 O2- 4 e 0.6908(7) 0.8973(9) 0.7458(3) 1.57(5) 1. 0
O9 O2- 4 e 0.7826(6) 0.5907(9) 0.7865(3) 1.57(5) 1. 0
O10 O2- 4 e 0.3900(7) 0.6066(9) 0.8406(3) 1.57(5) 1. 0
O11 O2- 4 e 0.0798(6) 0.6964(9) 1.1812(3) 1.57(5) 1. 0
O12 O2- 4 e 0.1202(6) 0.3072(10) 0.9035(3) 1.57(5) 1. 0
O13 O2- 4 e 0.0312(7) 1.0029(10) 0.8593(3) 1.57(5) 1. 0
O14 O2- 4 e 0.2941(7) 0.6170(9) 1.1265(3) 1.57(5) 1. 0
O15 O2- 4 e 0.1054(6) 0.8100(9) 1.0711(3) 1.57(5) 1. 0
B1 B3+ 4 e 0.654 0.7178 0.7812 1.6(1) 1. 0
B2 B3+ 4 e 0.1982 0.5722 0.1732 1.6(1) 1. 0
B3 B3+ 4 e 0.0069 0.7986 0.1219 1.6(1) 1. 0
B4 B3+ 4 e 0.1101 0.8518 0.8926 1.6(1) 1. 0
B5 B3+ 4 e 0.3218 0.7498 0.9656 1.6(1) 1. 0
B6 B3+ 4 e 0.2456 0.7387 0.0774 1.6(1) 1. 0
B7 B3+ 4 e 0.1472 0.503 0.9161 1.6(1) 1. 0
B8 B3+ 4 e 0.4902 0.7169 0.8735 1.6(1) 1. 0
B9 B3+ 4 e 0.4084 0.5397 0.7816 1.6(1) 1. 0
#End of TTdata_417852-ICSD