
#(C) 2019 by FIZ Karlsruhe - Leibniz Institute for Information Infrastructure.  All rights reserved.
data_417928-ICSD
_database_code_ICSD 417928
_audit_creation_date 2008-08-01
_chemical_name_systematic 'Pentadecasodium octalithium dodecabarium hexanitride'
_chemical_formula_structural 'Na15 Li8 Ba12 N6'
_chemical_formula_sum 'Ba12 Li8 N6 Na15'
_exptl_crystal_density_diffrn 2.42
_cell_measurement_temperature 293.
_publ_section_title

;
Synthesis and crystal structure of the new quaternary subnitride Na15 Li8 Ba12
N6
;
loop_
_citation_id
_citation_journal_full
_citation_year
_citation_journal_volume
_citation_page_first
_citation_page_last
_citation_journal_id_ASTM
primary 'Zeitschrift fuer Anorganische und Allgemeine Chemie (1950) (DE)' 2007
633 2296 2299 ZAACAB
loop_
_publ_author_name
'Smetana, V.'
'Babizhet'sky, V. (Babizhetskii, V.)'
'Vajenine, G.V.'
'Simon, A.'
_cell_length_a 12.341(5)
_cell_length_b 12.341(5)
_cell_length_c 33.311(5)
_cell_angle_alpha 90.
_cell_angle_beta 90.
_cell_angle_gamma 120.
_cell_volume 4393.58
_cell_formula_units_Z 3
_symmetry_space_group_name_H-M 'R -3 m H'
_symmetry_Int_Tables_number 166
_refine_ls_R_factor_all 0.0369
loop_
_symmetry_equiv_pos_site_id
_symmetry_equiv_pos_as_xyz
1 'x-y, -y, -z'
2 '-x, -x+y, -z'
3 'y, x, -z'
4 'x-y, x, -z'
5 'y, -x+y, -z'
6 '-x, -y, -z'
7 '-x+y, y, z'
8 'x, x-y, z'
9 '-y, -x, z'
10 '-x+y, -x, z'
11 '-y, x-y, z'
12 'x, y, z'
13 'x-y+2/3, -y+1/3, -z+1/3'
14 '-x+2/3, -x+y+1/3, -z+1/3'
15 'y+2/3, x+1/3, -z+1/3'
16 'x-y+2/3, x+1/3, -z+1/3'
17 'y+2/3, -x+y+1/3, -z+1/3'
18 '-x+2/3, -y+1/3, -z+1/3'
19 '-x+y+2/3, y+1/3, z+1/3'
20 'x+2/3, x-y+1/3, z+1/3'
21 '-y+2/3, -x+1/3, z+1/3'
22 '-x+y+2/3, -x+1/3, z+1/3'
23 '-y+2/3, x-y+1/3, z+1/3'
24 'x+2/3, y+1/3, z+1/3'
25 'x-y+1/3, -y+2/3, -z+2/3'
26 '-x+1/3, -x+y+2/3, -z+2/3'
27 'y+1/3, x+2/3, -z+2/3'
28 'x-y+1/3, x+2/3, -z+2/3'
29 'y+1/3, -x+y+2/3, -z+2/3'
30 '-x+1/3, -y+2/3, -z+2/3'
31 '-x+y+1/3, y+2/3, z+2/3'
32 'x+1/3, x-y+2/3, z+2/3'
33 '-y+1/3, -x+2/3, z+2/3'
34 '-x+y+1/3, -x+2/3, z+2/3'
35 '-y+1/3, x-y+2/3, z+2/3'
36 'x+1/3, y+2/3, z+2/3'
loop_
_atom_type_symbol
_atom_type_oxidation_number
Ba0+ 0
Na0+ 0
N0+ 0
Li0+ 0
loop_
_atom_site_label
_atom_site_type_symbol
_atom_site_symmetry_multiplicity
_atom_site_Wyckoff_symbol
_atom_site_fract_x
_atom_site_fract_y
_atom_site_fract_z
_atom_site_B_iso_or_equiv
_atom_site_occupancy
_atom_site_attached_hydrogens
Ba1 Ba0+ 18 h -0.44734(2) 0.44734(2) 0.425485(12) 0.03065(12) 1 0
Ba2 Ba0+ 18 h -0.12251(2) 0.12251(2) 0.393478(14) 0.03638(14) 1 0
Na1 Na0+ 18 h 0.23093(17) 0.4619(3) 0.37285(10) 0.0585(10) 1 0
Na2 Na0+ 18 h 0.1682(2) 0.3363(4) 0.47893(11) 0.0607(9) 1 0
Na3 Na0+ 6 c 0.3333 0.6667 0.4649(2) 0.071(2) 1 0
Na4 Na0+ 3 b 0. 0. 0.5 0.063(3) 1 0
N1 N0+ 18 h -0.2364(3) 0.2364(3) 0.38249(16) 0.0273(13) 1 0
Li1 Li0+ 6 c -0.3333 0.3333 0.3716(5) 0.023(4) 1 0
Li2 Li0+ 18 f -0.1295(11) 0.3333 0.3333 0.040(3) 1 0
loop_
_atom_site_aniso_label
_atom_site_aniso_type_symbol
_atom_site_aniso_U_11
_atom_site_aniso_U_22
_atom_site_aniso_U_33
_atom_site_aniso_U_12
_atom_site_aniso_U_13
_atom_site_aniso_U_23
Ba1 Ba0+ 0.03243(19) 0.03243(19) 0.0266(2) 0.0159(2) 0.00358(10) -0.00358(10)
Ba2 Ba0+ 0.0391(2) 0.0391(2) 0.0409(3) 0.0270(2) -0.00249(10) 0.00249(10)
Na1 Na0+ 0.0686(19) 0.055(2) 0.047(2) 0.0275(12) -0.0021(9) -0.0042(17)
Na2 Na0+ 0.0680(18) 0.067(2) 0.047(2) 0.0334(12) -0.0023(9) -0.0047(18)
Na3 Na0+ 0.080(3) 0.080(3) 0.053(5) 0.0398(17) 0. 0.
Na4 Na0+ 0.066(4) 0.066(4) 0.055(6) 0.033(2) 0. 0.
N1 N0+ 0.029(2) 0.029(2) 0.023(3) 0.014(3) 0.0000(11) 0.0000(11)
Li1 Li0+ 0.028(6) 0.028(6) 0.013(8) 0.014(3) 0. 0.
Li2 Li0+ 0.045(6) 0.051(8) 0.025(6) 0.026(4) 0.003(3) 0.006(5)
#End of TTdata_417928-ICSD