
#(C) 2019 by FIZ Karlsruhe - Leibniz Institute for Information Infrastructure.  All rights reserved.
data_418182-ICSD
_database_code_ICSD 418182
_audit_creation_date 2008-08-01
_chemical_name_systematic 'Decasodium hexaoxotriferrate(II) trioxoferrate(II)'
_chemical_formula_structural 'Na10 (Fe3 O6) (Fe O3)'
_chemical_formula_sum 'Fe4 Na10 O9'
_chemical_name_structure_type Na10Mn4O9
_exptl_crystal_density_diffrn 3.13
_cell_measurement_temperature 293.
_publ_section_title

;
Synthesis and crystal structure of Na10 [Mn3 O6] [Mn O3] (M = Fe, Mn) with a
remark on the magnetic properties
;
loop_
_citation_id
_citation_journal_full
_citation_year
_citation_journal_volume
_citation_page_first
_citation_page_last
_citation_journal_id_ASTM
primary 'Zeitschrift fuer Anorganische und Allgemeine Chemie (1950) (DE)' 2007
633 2579 2586 ZAACAB
loop_
_publ_author_name
'Amann, P.'
'Sobotka, B.M.'
'Fastje, O.'
'Moeller, A.'
_cell_length_a 10.9689(14)
_cell_length_b 10.9689(14)
_cell_length_c 18.252(4)
_cell_angle_alpha 90.
_cell_angle_beta 90.
_cell_angle_gamma 120.
_cell_volume 1901.81
_cell_formula_units_Z 6
_symmetry_space_group_name_H-M 'R -3 m H'
_symmetry_Int_Tables_number 166
_refine_ls_R_factor_all 0.057
loop_
_symmetry_equiv_pos_site_id
_symmetry_equiv_pos_as_xyz
1 'x-y, -y, -z'
2 '-x, -x+y, -z'
3 'y, x, -z'
4 'x-y, x, -z'
5 'y, -x+y, -z'
6 '-x, -y, -z'
7 '-x+y, y, z'
8 'x, x-y, z'
9 '-y, -x, z'
10 '-x+y, -x, z'
11 '-y, x-y, z'
12 'x, y, z'
13 'x-y+2/3, -y+1/3, -z+1/3'
14 '-x+2/3, -x+y+1/3, -z+1/3'
15 'y+2/3, x+1/3, -z+1/3'
16 'x-y+2/3, x+1/3, -z+1/3'
17 'y+2/3, -x+y+1/3, -z+1/3'
18 '-x+2/3, -y+1/3, -z+1/3'
19 '-x+y+2/3, y+1/3, z+1/3'
20 'x+2/3, x-y+1/3, z+1/3'
21 '-y+2/3, -x+1/3, z+1/3'
22 '-x+y+2/3, -x+1/3, z+1/3'
23 '-y+2/3, x-y+1/3, z+1/3'
24 'x+2/3, y+1/3, z+1/3'
25 'x-y+1/3, -y+2/3, -z+2/3'
26 '-x+1/3, -x+y+2/3, -z+2/3'
27 'y+1/3, x+2/3, -z+2/3'
28 'x-y+1/3, x+2/3, -z+2/3'
29 'y+1/3, -x+y+2/3, -z+2/3'
30 '-x+1/3, -y+2/3, -z+2/3'
31 '-x+y+1/3, y+2/3, z+2/3'
32 'x+1/3, x-y+2/3, z+2/3'
33 '-y+1/3, -x+2/3, z+2/3'
34 '-x+y+1/3, -x+2/3, z+2/3'
35 '-y+1/3, x-y+2/3, z+2/3'
36 'x+1/3, y+2/3, z+2/3'
loop_
_atom_type_symbol
_atom_type_oxidation_number
Fe2+ 2
O2- -2
Fe2+ 2
O2- -2
Na1+ 1
loop_
_atom_site_label
_atom_site_type_symbol
_atom_site_symmetry_multiplicity
_atom_site_Wyckoff_symbol
_atom_site_fract_x
_atom_site_fract_y
_atom_site_fract_z
_atom_site_B_iso_or_equiv
_atom_site_occupancy
_atom_site_attached_hydrogens
Fe1 Fe2+ 18 h 0.43286(6) 0.56714(6) 0.03376(6) 0.0121(3) 1 0
O1 O2- 18 h 0.5348(3) 0.4652(3) 0.0751(3) 0.0139(12) 1 0
O2 O2- 18 h 0.2272(4) 0.4545(7) 0.0613(5) 0.0315(18) 1 0
Fe2 Fe2+ 6 c 0. 0. 0.08883(14) 0.0186(5) 1 0
O3 O2- 18 h 0.2021(6) 0.1011(3) 0.0966(3) 0.0142(11) 1 0
Na1 Na1+ 18 f 0. 0.2649(4) 0. 0.0267(8) 1 0
Na2 Na1+ 3 b 0.3333 0.6667 0.1667 0.027(2) 1 0
Na3 Na1+ 18 h 0.2091(4) 0.10453(19) 0.2305(2) 0.0190(7) 1 0
Na4 Na1+ 36 i 0.6119(13) 0.614(2) 0.1803(5) 0.062(4) 0.29167 0
Na5 Na1+ 18 h 0.5235(5) 0.4765(5) 0.1950(4) 0.062(4) 0.58333 0
loop_
_atom_site_aniso_label
_atom_site_aniso_type_symbol
_atom_site_aniso_U_11
_atom_site_aniso_U_22
_atom_site_aniso_U_33
_atom_site_aniso_U_12
_atom_site_aniso_U_13
_atom_site_aniso_U_23
Fe1 Fe2+ 0.0130(4) 0.0130(4) 0.0112(5) 0.0072(5) -0.0001(2) 0.0001(2)
O1 O2- 0.021(2) 0.021(2) 0.007(2) 0.017(3) -0.0014(10) 0.0014(10)
O2 O2- 0.008(2) 0.019(3) 0.071(5) 0.0093(17) 0.0128(18) 0.026(4)
Fe2 Fe2+ 0.0148(7) 0.0148(7) 0.0263(12) 0.0074(3) 0. 0.
O3 O2- 0.014(3) 0.016(2) 0.012(3) 0.0069(14) 0.001(2) 0.0003(11)
Na1 Na1+ 0.025(2) 0.0240(14) 0.0317(19) 0.0123(10) 0.0094(16) 0.0047(8)
Na2 Na1+ 0.032(3) 0.032(3) 0.016(4) 0.0159(17) 0. 0.
Na3 Na1+ 0.0193(18) 0.0146(12) 0.0248(17) 0.0096(9) -0.0009(15) -0.0005(8)
Na4 Na1+ 0.045(6) 0.164(14) 0.015(4) 0.080(6) -0.017(5) -0.038(7)
Na5 Na1+ 0.045(6) 0.164(14) 0.015(4) 0.080(6) -0.017(5) -0.038(7)
#End of TTdata_418182-ICSD