
#(C) 2019 by FIZ Karlsruhe - Leibniz Institute for Information Infrastructure.  All rights reserved.
data_418299-ICSD
_database_code_ICSD 418299
_audit_creation_date 2010-08-01
_chemical_name_systematic
'Trisodium bis(thiosulfato(II))argentate(I) sesquihydrate'
_chemical_formula_structural 'Na3 Ag (S2 O3)2 (H2 O)1.5'
_chemical_formula_sum 'H3 Ag1 Na3 O7.5 S4'
_exptl_crystal_density_diffrn 2.82
_cell_measurement_temperature 150.
_publ_section_title

;
Structural characterization of some coinage metal(I) thiosulfate complexes,
Ma1 Mb2 (Xc) (S2 O3)d (* eS) (M1 = group 1 cation, X = univalent anion, M2 =
Cu(I), Ag(I), S = solvent)
;
loop_
_citation_id
_citation_journal_full
_citation_year
_citation_journal_volume
_citation_page_first
_citation_page_last
_citation_journal_id_ASTM
primary 'Zeitschrift fuer Anorganische und Allgemeine Chemie (1950) (DE)' 2008
634 2825 2844 ZAACAB
loop_
_publ_author_name
'Chan, E.J.'
'Skelton, B.W.'
'White, A.H.'
_cell_length_a 10.9180(10)
_cell_length_b 11.0400(10)
_cell_length_c 17.871(2)
_cell_angle_alpha 97.293(3)
_cell_angle_beta 106.354(3)
_cell_angle_gamma 97.847(3)
_cell_volume 2016.34
_cell_formula_units_Z 8
_symmetry_space_group_name_H-M 'P -1'
_symmetry_Int_Tables_number 2
_refine_ls_R_factor_all 0.032
loop_
_symmetry_equiv_pos_site_id
_symmetry_equiv_pos_as_xyz
1 '-x, -y, -z'
2 'x, y, z'
loop_
_atom_type_symbol
_atom_type_oxidation_number
Ag1+ 1
S4+ 4
S0+ 0
O2- -2
S4+ 4
S0+ 0
O2- -2
S4+ 4
S0+ 0
O2- -2
S4+ 4
S0+ 0
O2- -2
S4+ 4
S0+ 0
O2- -2
S4+ 4
S0+ 0
O2- -2
S4+ 4
S0+ 0
O2- -2
S4+ 4
S0+ 0
O2- -2
Na1+ 1
O2- -2
H1+ 1
loop_
_atom_site_label
_atom_site_type_symbol
_atom_site_symmetry_multiplicity
_atom_site_Wyckoff_symbol
_atom_site_fract_x
_atom_site_fract_y
_atom_site_fract_z
_atom_site_B_iso_or_equiv
_atom_site_occupancy
_atom_site_attached_hydrogens
Ag1 Ag1+ 2 i .577483(13) -.125042(14) .282244(9) .01675(5) 1. 0
Ag2 Ag1+ 2 i .751851(14) -.145733(14) .156426(9) .01695(5) 1. 0
Ag3 Ag1+ 2 i .922450(13) .127211(14) .213693(9) .01643(5) 1. 0
Ag4 Ag1+ 2 i .736269(14) .146208(14) .343357(9) .01755(5) 1. 0
S1 S4+ 2 i .44937(4) -.33912(4) .07410(2) .00897(11) 1. 0
S2 S0+ 2 i .50671(4) -.15647(4) .12849(3) .01274(13) 1. 0
O1 O2- 2 i .43531(12) -.42179(13) .13017(8) .0134(4) 1. 0
O2 O2- 2 i .32397(12) -.34558(13) .01411(8) .0150(4) 1. 0
O3 O2- 2 i .54923(12) -.36720(13) .03728(8) .0138(4) 1. 0
S3 S4+ 2 i .31213(4) -.30499(4) .29703(2) .00946(12) 1. 0
S4 S0+ 2 i .42653(4) -.14251(4) .35986(3) .01280(13) 1. 0
O4 O2- 2 i .20222(13) -.32576(14) .32948(8) .0170(5) 1. 0
O5 O2- 2 i .38781(14) -.40478(13) .30797(9) .0166(5) 1. 0
O6 O2- 2 i .26515(13) -.29187(13) .21372(8) .0143(4) 1. 0
S5 S4+ 2 i .79060(4) -.31797(4) .30217(2) .00899(12) 1. 0
S6 S0+ 2 i .81897(4) -.12809(4) .31828(3) .01284(13) 1. 0
O7 O2- 2 i .72240(13) -.36613(13) .21866(8) .0155(4) 1. 0
O8 O2- 2 i .91912(12) -.35288(12) .32774(8) .0132(4) 1. 0
O9 O2- 2 i .71185(13) -.36034(13) .35190(8) .0150(4) 1. 0
S7 S4+ 2 i .92824(4) -.32957(4) .06479(2) .01016(12) 1. 0
S8 S0+ 2 i .92097(5) -.14625(4) .09119(3) .01637(15) 1. 0
O10 O2- 2 i .93293(14) -.38849(15) .13412(9) .0195(5) 1. 0
O11 O2- 2 i .81062(12) -.38771(13) -.00023(8) .0160(4) 1. 0
O12 O2- 2 i 1.04566(13) -.33536(14) .04094(9) .0176(5) 1. 0
S9 S4+ 2 i .70756(4) .31625(4) .19929(2) .00877(11) 1. 0
S10 S0+ 2 i .67925(4) .12597(4) .18188(3) .01180(13) 1. 0
O13 O2- 2 i .73843(14) .36174(13) .28398(8) .0155(4) 1. 0
O14 O2- 2 i .81452(12) .36039(12) .16866(8) .0127(4) 1. 0
O15 O2- 2 i .58689(12) .35223(12) .15509(8) .0133(4) 1. 0
S11 S4+ 2 i 1.19082(4) .31076(4) .19975(2) .00983(12) 1. 0
S12 S0+ 2 i 1.07683(4) .14656(4) .13847(3) .01281(13) 1. 0
O16 O2- 2 i 1.12046(14) .41134(13) .17675(9) .0184(5) 1. 0
O17 O2- 2 i 1.21901(13) .30778(13) .28453(8) .0154(4) 1. 0
O18 O2- 2 i 1.31120(12) .32096(13) .17707(8) .0137(4) 1. 0
S13 S4+ 2 i 1.06865(4) .33433(4) .42224(2) .00887(11) 1. 0
S14 S0+ 2 i .97837(4) .15679(4) .36729(3) .01266(13) 1. 0
O19 O2- 2 i 1.01773(13) .36282(13) .48915(8) .0146(4) 1. 0
O20 O2- 2 i 1.04034(13) .42400(13) .36876(8) .0147(4) 1. 0
O21 O2- 2 i 1.20711(12) .32844(13) .44841(8) .0145(4) 1. 0
S15 S4+ 2 i .58639(4) .33870(4) .44041(2) .00956(12) 1. 0
S16 S0+ 2 i .57827(5) .15185(4) .41608(3) .01704(15) 1. 0
O22 O2- 2 i .72371(12) .39661(13) .47839(9) .0167(4) 1. 0
O23 O2- 2 i .53034(14) .38510(15) .36799(9) .0193(5) 1. 0
O24 O2- 2 i .51209(14) .36085(13) .49607(9) .0174(5) 1. 0
Na1 Na1+ 2 i 1.36656(8) .26643(8) .55058(5) .0152(3) 1. 0
Na2 Na1+ 2 i .51836(7) -.51395(8) .25231(5) .0148(3) 1. 0
Na3 Na1+ 2 i .19777(7) -.45215(7) .10419(5) .0132(2) 1. 0
Na4 Na1+ 2 i .30097(7) -.51274(7) -.09585(5) .0137(2) 1. 0
Na5 Na1+ 2 i .84419(7) .48602(7) .40414(4) .0135(2) 1. 0
Na6 Na1+ 2 i .62620(7) -.31148(8) -.06412(5) .0155(3) 1. 0
Na7 Na1+ 2 i .87993(7) .31263(8) .56511(5) .0159(3) 1. 0
Na8 Na1+ 2 i .13642(8) -.26775(8) -.05183(5) .0173(3) 1. 0
Na9 Na1+ 2 i 1.34032(7) .46565(8) .39681(5) .0147(3) 1. 0
Na10 Na1+ 2 i .23598(11) -.10147(10) .16841(6) .0287(4) 1. 0
Na11 Na1+ 2 i 1.00521(7) .51616(7) .24698(4) .0132(2) 1. 0
Na12 Na1+ 2 i 1.23999(10) .11982(10) .33463(6) .0268(4) 1. 0
O25 O2- 2 i 1.29416(15) .07045(15) .46490(9) .0186(5) 1. 0
O26 O2- 2 i .91488(15) .10458(15) .53517(9) .0187(5) 1. 0
O27 O2- 2 i .12506(16) -.08326(17) .27447(12) .0237(6) 1. 0
O28 O2- 2 i .36725(16) .08987(17) .23780(12) .0257(6) 1. 0
O29 O2- 2 i .20735(15) -.07025(15) .03387(9) .0189(5) 1. 0
O30 O2- 2 i .58384(14) -.10573(14) -.03462(9) .0179(5) 1. 0
H1 H1+ 2 i 1.226(4) .011(4) .463(2) .049(11) 1. 0
H2 H1+ 2 i 1.348(4) .024(4) .464(2) .045(10) 1. 0
H3 H1+ 2 i .944(3) .115(3) .4934(18) .019(7) 1. 0
H4 H1+ 2 i .974(4) .098(4) .563(2) .048(12) 1. 0
H5 H1+ 2 i .054(4) -.099(4) .247(3) .056(12) 1. 0
H6 H1+ 2 i .124(4) -.136(4) .291(3) .053(13) 1. 0
H7 H1+ 2 i .368(4) .149(4) .225(2) .048(12) 1. 0
H8 H1+ 2 i .439(4) .106(4) .268(3) .063(13) 1. 0
H9 H1+ 2 i .147(3) -.019(3) .027(2) .039(10) 1. 0
H10 H1+ 2 i .282(4) -.018(4) .039(3) .060(12) 1. 0
H11 H1+ 2 i .556(3) -.114(3) .007(2) .036(9) 1. 0
H12 H1+ 2 i .513(4) -.099(4) -.066(3) .055(12) 1. 0
loop_
_atom_site_aniso_label
_atom_site_aniso_type_symbol
_atom_site_aniso_U_11
_atom_site_aniso_U_22
_atom_site_aniso_U_33
_atom_site_aniso_U_12
_atom_site_aniso_U_13
_atom_site_aniso_U_23
Ag1 Ag1+ .01535(6) .01508(7) .02277(7) .00379(5) .00953(5) .00435(5)
Ag2 Ag1+ .01542(6) .01563(7) .02169(7) .00327(5) .00770(5) .00488(5)
Ag3 Ag1+ .01550(6) .01583(7) .02176(7) .00465(5) .00997(5) .00522(5)
Ag4 Ag1+ .01969(6) .01500(7) .02249(7) .00450(5) .01188(5) .00573(5)
S1 S4+ .00861(14) .00902(16) .00943(15) .00140(12) .00283(12) .00215(12)
S2 S0+ .01371(16) .00953(17) .01413(17) .00083(13) .00426(14) .00028(14)
O1 O2- .0137(5) .0143(6) .0142(5) .0021(4) .0060(4) .0070(5)
O2 O2- .0118(5) .0150(6) .0151(5) .0022(4) -.0011(4) .0030(5)
O3 O2- .0147(5) .0144(6) .0162(5) .0045(4) .0097(5) .0034(5)
S3 S4+ .00929(14) .00929(16) .01062(15) .00182(12) .00400(12) .00227(13)
S4 S0+ .01275(16) .01192(18) .01246(16) .00029(13) .00362(14) .00002(14)
O4 O2- .0125(5) .0214(7) .0180(6) -.0015(5) .0092(5) .0007(5)
O5 O2- .0212(6) .0119(6) .0208(6) .0085(5) .0089(5) .0062(5)
O6 O2- .0164(5) .0149(6) .0105(5) .0024(4) .0028(4) .0022(4)
S5 S4+ .00859(14) .00850(16) .00995(15) .00210(12) .00268(12) .00154(12)
S6 S0+ .01114(16) .00861(17) .01721(18) .00145(13) .00229(14) .00154(14)
O7 O2- .0178(6) .0130(6) .0117(5) .0029(5) -.0007(4) -.0011(4)
O8 O2- .0103(5) .0143(6) .0147(5) .0055(4) .0023(4) .0018(4)
O9 O2- .0154(5) .0135(6) .0197(6) .0032(4) .0101(5) .0048(5)
S7 S4+ .00879(14) .01095(17) .01150(16) .00206(12) .00337(12) .00377(13)
S8 S0+ .0196(2) .01053(19) .0203(2) -.00052(15) .01045(17) .00085(16)
O10 O2- .0198(6) .0236(7) .0192(6) .0054(5) .0076(5) .0132(6)
O11 O2- .0131(5) .0145(6) .0158(6) .0021(4) -.0005(4) -.0023(5)
O12 O2- .0129(5) .0226(7) .0231(7) .0078(5) .0096(5) .0104(6)
S9 S4+ .00845(14) .00809(16) .00972(15) .00147(12) .00265(12) .00163(12)
S10 S0+ .01085(15) .00814(17) .01471(17) .00117(12) .00189(13) .00099(14)
O13 O2- .0223(6) .0126(6) .0106(5) .0014(5) .0049(5) .0007(4)
O14 O2- .0109(5) .0120(5) .0161(5) .0006(4) .0063(4) .0023(4)
O15 O2- .0100(5) .0121(6) .0170(6) .0039(4) .0014(4) .0033(5)
S11 S4+ .01054(15) .00936(17) .01120(15) .00197(12) .00542(13) .00254(13)
S12 S0+ .01153(16) .01321(19) .01272(16) .00070(13) .00404(13) -.00041(14)
O16 O2- .0223(6) .0139(6) .0265(7) .0100(5) .0136(6) .0093(5)
O17 O2- .0190(6) .0156(6) .0107(5) -.0017(5) .0061(4) .0007(4)
O18 O2- .0114(5) .0171(6) .0143(5) .0015(4) .0067(4) .0034(5)
S13 S4+ .00894(14) .00915(16) .00902(14) .00171(12) .00302(12) .00270(12)
S14 S0+ .01376(16) .01010(18) .01343(17) .00063(13) .00456(14) .00024(14)
O19 O2- .0175(5) .0147(6) .0128(5) .0003(5) .0090(5) -.0003(4)
O20 O2- .0165(5) .0136(6) .0153(5) .0041(4) .0043(5) .0075(5)
O21 O2- .0086(5) .0175(6) .0172(6) .0021(4) .0022(4) .0064(5)
S15 S4+ .00869(14) .00972(17) .01070(15) .00174(12) .00314(12) .00283(13)
S16 S0+ .0226(2) .01021(19) .0217(2) .00088(15) .01342(18) .00210(16)
O22 O2- .0113(5) .0157(6) .0194(6) -.0023(4) .0006(5) .0040(5)
O23 O2- .0204(6) .0236(7) .0169(6) .0093(5) .0046(5) .0113(5)
O24 O2- .0205(6) .0166(6) .0200(6) .0050(5) .0130(5) .0042(5)
Na1 Na1+ .0155(3) .0178(4) .0155(3) .0055(3) .0070(3) .0063(3)
Na2 Na1+ .0152(3) .0148(4) .0147(3) .0036(3) .0052(3) .0014(3)
Na3 Na1+ .0139(3) .0117(3) .0142(3) .0022(3) .0050(3) .0021(3)
Na4 Na1+ .0160(3) .0123(3) .0133(3) .0032(3) .0045(3) .0032(3)
Na5 Na1+ .0149(3) .0122(3) .0124(3) .0010(3) .0030(3) .0027(3)
Na6 Na1+ .0136(3) .0227(4) .0135(3) .0072(3) .0061(3) .0066(3)
Na7 Na1+ .0133(3) .0232(4) .0147(3) .0064(3) .0066(3) .0073(3)
Na8 Na1+ .0196(4) .0213(4) .0157(3) .0092(3) .0086(3) .0075(3)
Na9 Na1+ .0158(3) .0134(3) .0151(3) .0010(3) .0051(3) .0033(3)
Na10 Na1+ .0439(6) .0207(5) .0237(4) .0043(4) .0124(4) .0088(4)
Na11 Na1+ .0134(3) .0135(3) .0131(3) .0030(3) .0045(3) .0020(3)
Na12 Na1+ .0351(5) .0227(5) .0221(4) .0001(4) .0080(4) .0088(4)
O25 O2- .0154(6) .0172(7) .0233(7) .0038(5) .0053(5) .0043(5)
O26 O2- .0175(6) .0196(7) .0179(6) .0017(5) .0026(5) .0073(5)
O27 O2- .0164(6) .0201(8) .0350(9) .0070(6) .0048(6) .0097(7)
O28 O2- .0171(6) .0210(8) .0379(10) .0062(6) .0024(6) .0119(7)
O29 O2- .0149(6) .0194(7) .0230(7) .0038(5) .0056(5) .0055(5)
O30 O2- .0172(6) .0188(7) .0158(6) .0012(5) .0019(5) .0055(5)
#End of TTdata_418299-ICSD