
#(C) 2019 by FIZ Karlsruhe - Leibniz Institute for Information Infrastructure.  All rights reserved.
data_418312-ICSD
_database_code_ICSD 418312
_audit_creation_date 2010-08-01
_chemical_name_systematic 'Octasodium tetrakis(thiosulfate(II)) pentahydrate'
_chemical_formula_structural 'Na8 (S2 O3)4 (H2 O)5'
_chemical_formula_sum 'H10 Na8 O17 S8'
_exptl_crystal_density_diffrn 2.15
_cell_measurement_temperature 150.
_publ_section_title

;
Structural characterization of some coinage metal(I) thiosulfate complexes,
Ma1 Mb2 (Xc) (S2 O3)d (* eS) (M1 = group 1 cation, X = univalent anion, M2 =
Cu(I), Ag(I), S = solvent)
;
loop_
_citation_id
_citation_journal_full
_citation_year
_citation_journal_volume
_citation_page_first
_citation_page_last
_citation_journal_id_ASTM
primary 'Zeitschrift fuer Anorganische und Allgemeine Chemie (1950) (DE)' 2008
634 2825 2844 ZAACAB
loop_
_publ_author_name
'Chan, E.J.'
'Skelton, B.W.'
'White, A.H.'
_cell_length_a 11.4290(9)
_cell_length_b 11.2795(8)
_cell_length_c 17.3370(10)
_cell_angle_alpha 90
_cell_angle_beta 94.794(2)
_cell_angle_gamma 90
_cell_volume 2227.15
_cell_formula_units_Z 4
_symmetry_space_group_name_H-M 'P 1 21/c 1'
_symmetry_Int_Tables_number 14
_refine_ls_R_factor_all 0.0472
loop_
_symmetry_equiv_pos_site_id
_symmetry_equiv_pos_as_xyz
1 'x, -y+1/2, z+1/2'
2 '-x, -y, -z'
3 '-x, y+1/2, -z+1/2'
4 'x, y, z'
loop_
_atom_type_symbol
_atom_type_oxidation_number
Na1+ 1
S4+ 4
S0+ 0
O2- -2
S4+ 4
S0+ 0
O2- -2
S4+ 4
S0+ 0
O2- -2
S4+ 4
S0+ 0
O2- -2
H1+ 1
loop_
_atom_site_label
_atom_site_type_symbol
_atom_site_symmetry_multiplicity
_atom_site_Wyckoff_symbol
_atom_site_fract_x
_atom_site_fract_y
_atom_site_fract_z
_atom_site_B_iso_or_equiv
_atom_site_occupancy
_atom_site_attached_hydrogens
Na1 Na1+ 4 e 0.48627(7) 0.85778(8) 0.60070(5) 0.01093(17) 1 0
Na2 Na1+ 4 e 0.49006(8) 0.61395(8) 0.74752(5) 0.01376(18) 1 0
Na3 Na1+ 4 e 0.83168(9) 0.63219(8) 0.74531(5) 0.01605(19) 1 0
Na4 Na1+ 4 e 0.33830(8) 0.62733(8) 0.90628(5) 0.01168(17) 1 0
Na5 Na1+ 4 e 0.65641(7) 0.62821(7) 0.59007(5) 0.01005(17) 1 0
Na6 Na1+ 4 e 0.48913(7) 0.35845(8) 0.60474(5) 0.01136(17) 1 0
Na7 Na1+ 4 e 0.18217(8) 0.39835(8) 0.59563(5) 0.01398(19) 1 0
Na8 Na1+ 4 e 0.17388(8) 0.89761(8) 0.58867(5) 0.01474(19) 1 0
S1 S4+ 4 e 0.31914(4) 0.37810(4) 0.76713(3) 0.00697(10) 1 0
S2 S0+ 4 e 0.14313(5) 0.38166(5) 0.75995(3) 0.01111(11) 1 0
O1 O2- 4 e 0.35787(12) 0.25921(13) 0.79569(8) 0.0105(3) 1 0
O2 O2- 4 e 0.35508(13) 0.39980(14) 0.68913(8) 0.0117(3) 1 0
O3 O2- 4 e 0.36876(13) 0.47033(13) 0.82060(9) 0.0123(3) 1 0
S3 S4+ 4 e 0.31706(4) 0.87769(4) 0.76418(3) 0.00704(10) 1 0
S4 S0+ 4 e 0.14127(5) 0.88236(5) 0.76171(3) 0.01124(11) 1 0
O4 O2- 4 e 0.34729(13) 0.88828(13) 0.68384(8) 0.0121(3) 1 0
O5 O2- 4 e 0.36387(12) 0.76678(13) 0.80013(8) 0.0111(3) 1 0
O6 O2- 4 e 0.36428(13) 0.98128(13) 0.80981(9) 0.0123(3) 1 0
S5 S4+ 4 e 0.64393(4) 0.88410(4) 0.45147(3) 0.00688(10) 1 0
S6 S0+ 4 e 0.80270(4) 0.85383(5) 0.41259(3) 0.00966(10) 1 0
O7 O2- 4 e 0.62968(13) 0.80380(13) 0.51699(8) 0.0132(3) 1 0
O8 O2- 4 e 0.63898(13) 1.00930(12) 0.47598(8) 0.0107(3) 1 0
O9 O2- 4 e 0.55135(12) 0.85938(13) 0.38888(8) 0.0116(3) 1 0
S7 S4+ 4 e 0.64754(4) 0.38730(4) 0.45485(3) 0.00712(10) 1 0
S8 S0+ 4 e 0.80509(4) 0.35388(5) 0.41653(3) 0.01080(10) 1 0
O10 O2- 4 e 0.55359(13) 0.36076(13) 0.39327(8) 0.0108(3) 1 0
O11 O2- 4 e 0.64373(13) 0.51487(13) 0.47593(8) 0.0117(3) 1 0
O12 O2- 4 e 0.63285(13) 0.31175(13) 0.52252(9) 0.0132(3) 1 0
O13 O2- 4 e -0.02629(15) 0.41461(17) 0.57326(10) 0.0177(3) 1 0
O14 O2- 4 e 1.03189(16) 0.63136(16) 0.79211(11) 0.0215(4) 1 0
O15 O2- 4 e 0.86250(15) 0.63551(15) 0.60567(11) 0.0186(4) 1 0
O16 O2- 4 e -0.03160(15) 0.85979(17) 0.57608(10) 0.0175(3) 1 0
O17 O2- 4 e 0.14426(17) 0.64216(17) 0.94291(11) 0.0202(4) 1 0
H1 H1+ 4 e -0.054(3) 0.388(3) 0.6100(12) 0.057(13) 1 0
H2 H1+ 4 e -0.066(2) 0.398(3) 0.5327(11) 0.041(10) 1 0
H3 H1+ 4 e 1.070(3) 0.5725(18) 0.7791(19) 0.050(11) 1 0
H4 H1+ 4 e 1.060(3) 0.6906(17) 0.7755(18) 0.047(11) 1 0
H5 H1+ 4 e 0.911(2) 0.5795(17) 0.6017(17) 0.037(9) 1 0
H6 H1+ 4 e 0.899(2) 0.6962(15) 0.5946(15) 0.019(7) 1 0
H7 H1+ 4 e -0.065(3) 0.883(3) 0.6134(12) 0.042(10) 1 0
H8 H1+ 4 e -0.070(2) 0.875(2) 0.5365(11) 0.025(8) 1 0
H9 H1+ 4 e 0.137(3) 0.708(2) 0.960(2) 0.088(16) 1 0
H10 H1+ 4 e 0.095(3) 0.626(3) 0.9068(15) 0.050(12) 1 0
loop_
_atom_site_aniso_label
_atom_site_aniso_type_symbol
_atom_site_aniso_U_11
_atom_site_aniso_U_22
_atom_site_aniso_U_33
_atom_site_aniso_U_12
_atom_site_aniso_U_13
_atom_site_aniso_U_23
Na1 Na1+ 0.0099(4) 0.0124(4) 0.0107(4) 0.0012(3) 0.0020(3) -0.0001(3)
Na2 Na1+ 0.0167(5) 0.0134(4) 0.0117(4) 0.0003(3) 0.0047(3) 0.0005(3)
Na3 Na1+ 0.0209(5) 0.0123(4) 0.0148(4) 0.0017(4) 0.0005(4) 0.0002(4)
Na4 Na1+ 0.0128(4) 0.0109(4) 0.0115(4) -0.0011(3) 0.0026(3) -0.0003(3)
Na5 Na1+ 0.0115(4) 0.0101(4) 0.0084(4) 0.0012(3) 0.0003(3) 0.0000(3)
Na6 Na1+ 0.0102(4) 0.0133(4) 0.0107(4) 0.0019(3) 0.0019(3) 0.0001(3)
Na7 Na1+ 0.0136(4) 0.0107(4) 0.0171(5) -0.0002(3) -0.0018(3) 0.0020(3)
Na8 Na1+ 0.0157(4) 0.0113(4) 0.0169(5) 0.0001(3) -0.0003(4) -0.0001(3)
S1 S4+ 0.0075(2) 0.0060(2) 0.0074(2) 0.00022(17) 0.00075(17) 0.00029(17)
S2 S0+ 0.0073(2) 0.0121(3) 0.0140(3) -0.00011(18) 0.00181(19) 0.00023(19)
O1 O2- 0.0134(7) 0.0064(7) 0.0117(7) 0.0035(5) 0.0006(5) 0.0018(5)
O2 O2- 0.0105(7) 0.0161(8) 0.0091(7) 0.0021(6) 0.0037(5) 0.0030(6)
O3 O2- 0.0136(7) 0.0101(7) 0.0130(7) -0.0020(6) -0.0013(6) -0.0041(6)
S3 S4+ 0.0071(2) 0.0065(2) 0.0075(2) 0.00030(17) 0.00089(17) 0.00037(17)
S4 S0+ 0.0078(2) 0.0109(3) 0.0152(3) 0.00073(18) 0.00172(19) 0.00101(19)
O4 O2- 0.0138(7) 0.0160(8) 0.0069(7) 0.0013(6) 0.0034(5) 0.0021(5)
O5 O2- 0.0122(7) 0.0093(7) 0.0115(7) 0.0019(6) -0.0006(5) 0.0027(5)
O6 O2- 0.0126(7) 0.0084(7) 0.0158(8) -0.0027(6) 0.0012(6) -0.0046(6)
S5 S4+ 0.0079(2) 0.0060(2) 0.0068(2) 0.00003(17) 0.00110(17) 0.00012(16)
S6 S0+ 0.0085(2) 0.0099(2) 0.0109(2) 0.00042(19) 0.00220(17) -0.00052(19)
O7 O2- 0.0163(8) 0.0116(7) 0.0124(7) 0.0015(6) 0.0050(6) 0.0054(6)
O8 O2- 0.0143(8) 0.0065(7) 0.0113(7) 0.0024(5) 0.0008(6) -0.0025(5)
O9 O2- 0.0090(7) 0.0139(7) 0.0112(7) -0.0011(6) -0.0030(5) -0.0025(6)
S7 S4+ 0.0076(2) 0.0064(2) 0.0073(2) 0.00038(17) 0.00059(17) 0.00033(16)
S8 S0+ 0.0087(2) 0.0100(2) 0.0141(2) 0.00030(19) 0.00327(18) -0.0006(2)
O10 O2- 0.0096(7) 0.0113(7) 0.0110(7) -0.0013(6) -0.0022(5) -0.0008(6)
O11 O2- 0.0166(8) 0.0079(7) 0.0104(7) 0.0015(6) 0.0003(6) -0.0028(5)
O12 O2- 0.0148(7) 0.0129(8) 0.0124(7) 0.0023(6) 0.0043(6) 0.0069(6)
O13 O2- 0.0134(7) 0.0064(7) 0.0117(7) 0.0035(5) 0.0006(5) 0.0018(5)
O14 O2- 0.0138(7) 0.0160(8) 0.0069(7) 0.0013(6) 0.0034(5) 0.0021(5)
O15 O2- 0.0163(8) 0.0116(7) 0.0124(7) 0.0015(6) 0.0050(6) 0.0054(6)
O16 O2- 0.0096(7) 0.0113(7) 0.0110(7) -0.0013(6) -0.0022(5) -0.0008(6)
O17 O2- 0.0236(10) 0.0149(9) 0.0223(9) 0.0030(7) 0.0026(7) -0.0002(7)
#End of TTdata_418312-ICSD