
#(C) 2019 by FIZ Karlsruhe - Leibniz Institute for Information Infrastructure.  All rights reserved.
data_418443-ICSD
_database_code_ICSD 418443
_audit_creation_date 2009-08-01
_chemical_name_systematic 'Sodium potassium alumosilicate *'
_chemical_formula_structural 'Na3 (K0.57 Na0.24) (Al3.84 Si4.16 O16)'
_chemical_formula_sum 'Al3.84 K0.57 Na3.24 O16 Si4.16'
_chemical_name_structure_type KNa3Al4(SiO4)4
_chemical_name_mineral Nepheline
_exptl_crystal_density_diffrn 2.63
_cell_measurement_temperature 200.
_publ_section_title
'The mechanism of coupling in the modulated structure of nepheline'
loop_
_citation_id
_citation_journal_full
_citation_year
_citation_journal_volume
_citation_page_first
_citation_page_last
_citation_journal_id_ASTM
primary 'Canadian Mineralogist' 2008 46 1465 1476 CAMIA6
loop_
_publ_author_name
'Angel, R.J.'
'Gatta, G.D.'
'Boffa Ballaran, T.'
'Carpenter, M.A.'
_cell_length_a 9.9890(5)
_cell_length_b 9.9890(5)
_cell_length_c 8.3687(6)
_cell_angle_alpha 90.
_cell_angle_beta 90.
_cell_angle_gamma 120.
_cell_volume 723.16
_cell_formula_units_Z 2
_symmetry_space_group_name_H-M 'P 63'
_symmetry_Int_Tables_number 173
_refine_ls_R_factor_all 0.0332
loop_
_symmetry_equiv_pos_site_id
_symmetry_equiv_pos_as_xyz
1 'x-y, x, z+1/2'
2 'y, -x+y, z+1/2'
3 '-x, -y, z+1/2'
4 '-x+y, -x, z'
5 '-y, x-y, z'
6 'x, y, z'
loop_
_atom_type_symbol
_atom_type_oxidation_number
K1+ 1
Na1+ 1
Al3+ 3
Si4+ 4
Al3+ 3
Si4+ 4
O2- -2
loop_
_atom_site_label
_atom_site_type_symbol
_atom_site_symmetry_multiplicity
_atom_site_Wyckoff_symbol
_atom_site_fract_x
_atom_site_fract_y
_atom_site_fract_z
_atom_site_B_iso_or_equiv
_atom_site_occupancy
_atom_site_attached_hydrogens
K1 K1+ 2 a 0 0 0.0034(4) 0.028(1) 0.57 0
Na1 Na1+ 2 a 0 0 0.0034(4) 0.028(1) 0.24 0
Na2 Na1+ 6 c 0.5545(1) 0.9972(1) 0.5081(3) 0.021(1) 1. 0
Al1 Al3+ 2 b 0.6667 0.3333 0.7014(2) 0.012(1) 0.96 0
Si1 Si4+ 2 b 0.6667 0.3333 0.7014(2) 0.012(1) 0.04 0
Si2 Si4+ 2 b 0.6667 0.3333 0.3134(2) 0.013(1) 1. 0
Si3 Si4+ 6 c 0.9061(1) 0.6660(1) 0.8223(1) 0.013(1) 1. 0
Al2 Al3+ 6 c 0.9068(1) 0.6675(1) 0.1959(1) 0.011(1) 0.96 0
Si4 Si4+ 6 c 0.9068(1) 0.6675(1) 0.1959(1) 0.011(1) 0.04 0
O1 O2- 6 c 0.6620(16) 0.2858(9) 0.5015(12) 0.028(1) 0.333 0
O2 O2- 6 c 0.9734(2) 0.6830(3) 0.0027(5) 0.033(1) 1. 0
O3 O2- 6 c 0.8269(3) 0.4775(3) 0.2516(6) 0.037(1) 1. 0
O4 O2- 6 c 0.8373(3) 0.4896(3) 0.7629(6) 0.033(1) 1. 0
O5 O2- 6 c 0.7736(3) 0.7145(3) 0.8249(4) 0.018(1) 1. 0
O6 O2- 6 c 0.7765(3) 0.7330(3) 0.2011(5) 0.021(1) 1. 0
#End of TTdata_418443-ICSD