
#(C) 2019 by FIZ Karlsruhe - Leibniz Institute for Information Infrastructure.  All rights reserved.
data_418517-ICSD
_database_code_ICSD 418517
_audit_creation_date 2008-08-01
_audit_update_record 2013-02-01
_chemical_name_systematic
'Barium sodium fluoride chloride bromide (6.92/0.11/12/0.83/1.17)'
_chemical_formula_structural 'Ba6.92 Na0.11 F12 Cl0.83 Br1.17'
_chemical_formula_sum 'Ba6.92 Br1.17 Cl0.83 F12 Na0.11'
_chemical_name_structure_type Ba7Cl2F12
_exptl_crystal_density_diffrn 5.24
_cell_measurement_temperature 293.
_publ_section_title

;
Crystallochemical studies in the family of crystals Ba(7-x) Na(y) F12 Cl(2-x)
Br(z) (x < 0.1, y < 0.2, z < 1.5)
;
loop_
_citation_id
_citation_journal_full
_citation_year
_citation_journal_volume
_citation_page_first
_citation_page_last
_citation_journal_id_ASTM
primary 'Zeitschrift fuer Anorganische und Allgemeine Chemie (1950) (DE)' 2008
634 1041 1044 ZAACAB
loop_
_publ_author_name
'Hagemann, H.'
'Penhouet, T.'
'Rief, A.'
'Kubel, F.'
_cell_length_a 10.6431(9)
_cell_length_b 10.6431(9)
_cell_length_c 4.2136(4)
_cell_angle_alpha 90.
_cell_angle_beta 90.
_cell_angle_gamma 120.
_cell_volume 413.35
_cell_formula_units_Z 1
_symmetry_space_group_name_H-M 'P -6'
_symmetry_Int_Tables_number 174
_refine_ls_R_factor_all 0.0219
loop_
_symmetry_equiv_pos_site_id
_symmetry_equiv_pos_as_xyz
1 '-x+y, -x, -z'
2 '-y, x-y, -z'
3 'x, y, -z'
4 '-x+y, -x, z'
5 '-y, x-y, z'
6 'x, y, z'
loop_
_atom_type_symbol
_atom_type_oxidation_number
F1- -1
Ba2+ 2
F1- -1
Ba2+ 2
F1- -1
Cl1- -1
Br1- -1
Ba2+ 2
Na1+ 1
loop_
_atom_site_label
_atom_site_type_symbol
_atom_site_symmetry_multiplicity
_atom_site_Wyckoff_symbol
_atom_site_fract_x
_atom_site_fract_y
_atom_site_fract_z
_atom_site_B_iso_or_equiv
_atom_site_occupancy
_atom_site_attached_hydrogens
F1 F1- 3 k .0522(5) .4370(5) .5 .0037(6) 1. 0
F2 F1- 3 k .2178(6) .1157(6) .5 .0232(9) 1. 0
Ba1 Ba2+ 3 k .29000(4) .39824(4) .5 .00823(10) 1. 0
F3 F1- 3 j .1212(5) .2739(6) . .0363(12) 1. 0
Ba2 Ba2+ 3 j .40623(5) .10594(4) . .00997(11) 1. 0
F4 F1- 3 j .4306(5) .3694(5) . .0269(13) 1. 0
Cl1 Cl1- 1 f .6667 .3333 .5 .0135(4) .512(11) 0
Cl2 Cl1- 1 c .3333 .6667 . .0135(7) .319(13) 0
Br1 Br1- 1 f .6667 .3333 .5 .0258(17) .488(11) 0
Br2 Br1- 1 c .3333 .6667 . .017(2) .681(13) 0
Ba3 Ba2+ 1 a . . . .02149(16) .799(4) 0
Ba4 Ba2+ 1 b . . .5 .0150(4) .120(3) 0
Na1 Na1+ 2 g . . .25 .0150(4) .054(7) 0
loop_
_atom_site_aniso_label
_atom_site_aniso_type_symbol
_atom_site_aniso_U_11
_atom_site_aniso_U_22
_atom_site_aniso_U_33
_atom_site_aniso_U_12
_atom_site_aniso_U_13
_atom_site_aniso_U_23
F1 F1- .011(2) .014(2) .017(2) .0034(18) . .
F2 F1- .037(3) .018(2) .033(2) .017(2) . .
Ba1 Ba2+ .0093(2) .00980(18) .0102(2) .00542(17) . .
F3 F1- .017(2) .030(3) .0137(18) .011(2) . .
Ba2 Ba2+ .0103(2) .0080(2) .0119(2) .00394(16) . .
F4 F1- .016(2) .017(2) .012(2) .0082(19) . .
Cl1 Cl1- .0134(7) .0134(7) .0137(10) .0067(3) . .
Cl2 Cl1- .0137(6) .0137(6) .0131(9) .0069(3) . .
Br1 Br1- .0134(7) .0134(7) .0137(10) .0067(3) . .
Br2 Br1- .0137(6) .0137(6) .0131(9) .0069(3) . .
Ba3 Ba2+ .0071(3) .0071(3) .0307(5) .00354(15) . .
Ba4 Ba2+ .0071(3) .0071(3) .0307(5) .00354(15) . .
Na1 Na1+ .0071(3) .0071(3) .0307(5) .00354(15) . .
#End of TTdata_418517-ICSD