
#(C) 2019 by FIZ Karlsruhe - Leibniz Institute for Information Infrastructure.  All rights reserved.
data_418518-ICSD
_database_code_ICSD 418518
_audit_creation_date 2008-08-01
_audit_update_record 2013-02-01
_chemical_name_systematic
'Barium sodium fluoride chloride bromide (6.89/0.16/12/0.52/1.48)'
_chemical_formula_structural 'Ba6.89 Na0.16 F12 Cl0.52 Br1.48'
_chemical_formula_sum 'Ba6.89 Br1.48 Cl0.52 F12 Na0.16'
_chemical_name_structure_type Ba7Cl2F12
_exptl_crystal_density_diffrn 5.27
_cell_measurement_temperature 293.
_publ_section_title

;
Crystallochemical studies in the family of crystals Ba(7-x) Na(y) F12 Cl(2-x)
Br(z) (x < 0.1, y < 0.2, z < 1.5)
;
loop_
_citation_id
_citation_journal_full
_citation_year
_citation_journal_volume
_citation_page_first
_citation_page_last
_citation_journal_id_ASTM
primary 'Zeitschrift fuer Anorganische und Allgemeine Chemie (1950) (DE)' 2008
634 1041 1044 ZAACAB
loop_
_publ_author_name
'Hagemann, H.'
'Penhouet, T.'
'Rief, A.'
'Kubel, F.'
_cell_length_a 10.63690(9)
_cell_length_b 10.63690(9)
_cell_length_c 4.2302(4)
_cell_angle_alpha 90.
_cell_angle_beta 90.
_cell_angle_gamma 120.
_cell_volume 414.5
_cell_formula_units_Z 1
_symmetry_space_group_name_H-M 'P -6'
_symmetry_Int_Tables_number 174
_refine_ls_R_factor_all 0.021
loop_
_symmetry_equiv_pos_site_id
_symmetry_equiv_pos_as_xyz
1 '-x+y, -x, -z'
2 '-y, x-y, -z'
3 'x, y, -z'
4 '-x+y, -x, z'
5 '-y, x-y, z'
6 'x, y, z'
loop_
_atom_type_symbol
_atom_type_oxidation_number
F1- -1
Ba2+ 2
F1- -1
Ba2+ 2
F1- -1
Cl1- -1
Br1- -1
Ba2+ 2
Na1+ 1
loop_
_atom_site_label
_atom_site_type_symbol
_atom_site_symmetry_multiplicity
_atom_site_Wyckoff_symbol
_atom_site_fract_x
_atom_site_fract_y
_atom_site_fract_z
_atom_site_B_iso_or_equiv
_atom_site_occupancy
_atom_site_attached_hydrogens
F1 F1- 3 k .0564(6) .4359(5) .5 .0055(7) 1. 0
F2 F1- 3 k .2253(9) .1219(7) .5 .0131(6) 1. 0
Ba1 Ba2+ 3 k .29203(5) .39865(5) .5 .00838(9) 1. 0
F3 F1- 3 j .1212(6) .2664(8) . .0514(13) 1. 0
Ba2 Ba2+ 3 j .40339(5) .10507(5) . .01101(10) 1. 0
F4 F1- 3 j .4315(5) .3726(6) . .0358(14) 1. 0
Cl1 Cl1- 1 f .6667 .3333 .5 .0134(7) .339(11) 0
Cl2 Cl1- 1 c .3333 .6667 . .0162(7) .179(12) 0
Br1 Br1- 1 f .6667 .3333 .5 .0243(15) .661(11) 0
Br2 Br1- 1 c .3333 .6667 . .0196(17) .821(12) 0
Ba3 Ba2+ 1 a . . . .02807(15) .673(4) 0
Ba4 Ba2+ 1 b . . .5 .003 .213(3) 0
Na1 Na1+ 2 g . . .25 .003 .080(5) 0
loop_
_atom_site_aniso_label
_atom_site_aniso_type_symbol
_atom_site_aniso_U_11
_atom_site_aniso_U_22
_atom_site_aniso_U_33
_atom_site_aniso_U_12
_atom_site_aniso_U_13
_atom_site_aniso_U_23
F1 F1- .016(3) .014(3) .024(3) .003(2) . .
F2 F1- .081(5) .031(3) .038(3) .043(3) . .
Ba1 Ba2+ .0131(3) .0137(2) .0097(3) .0080(2) . .
F3 F1- .027(3) .075(5) .0134(19) .026(3) . .
Ba2 Ba2+ .0144(2) .0109(2) .0112(3) .0052(2) . .
F4 F1- .018(3) .023(3) .007(2) .007(2) . .
Cl1 Cl1- .0154(6) .0154(6) .0094(10) .0077(3) . .
Cl2 Cl1- .0168(6) .0168(6) .0149(10) .0084(3) . .
Br1 Br1- .0154(6) .0154(6) .0094(10) .0077(3) . .
Br2 Br1- .0168(6) .0168(6) .0149(10) .0084(3) . .
Ba3 Ba2+ .0101(3) .0101(3) .0359(4) .00503(14) . .
Ba4 Ba2+ .0101(3) .0101(3) .0359(4) .00503(14) . .
Na1 Na1+ .0101(3) .0101(3) .0359(4) .00503(14) . .
#End of TTdata_418518-ICSD