
#(C) 2019 by FIZ Karlsruhe - Leibniz Institute for Information Infrastructure.  All rights reserved.
data_418633-ICSD
_database_code_ICSD 418633
_audit_creation_date 2016-02-01
_chemical_name_systematic 'Sodium strontium tris(trioxophosphate)'
_chemical_formula_structural 'Na Sr (P O3)3'
_chemical_formula_sum 'Na1 O9 P3 Sr1'
_exptl_crystal_density_diffrn 3.16
_cell_measurement_temperature 293.
_publ_section_title
'Structures of the chain metaphosphates Na M (PO3)3 (M = Ca or Sr)'
loop_
_citation_id
_citation_journal_full
_citation_year
_citation_journal_volume
_citation_page_first
_citation_page_last
_citation_journal_id_ASTM
primary 'Magnetic Resonance in Chemistry' 2008 46 316 322 MRCHEG
loop_
_publ_author_name
'Abrahams, I.'
'Hawkes, G.E.'
'Ahmed, A.'
'Di Cristina, T.'
'Demetriou, D.Z.'
'Ivanova, G.I.'
_cell_length_a 6.805(2)
_cell_length_b 7.133(2)
_cell_length_c 7.720(2)
_cell_angle_alpha 83.71(4)
_cell_angle_beta 80.48(3)
_cell_angle_gamma 82.87(3)
_cell_volume 365.18
_cell_formula_units_Z 2
_symmetry_space_group_name_H-M 'P -1'
_symmetry_Int_Tables_number 2
_refine_ls_R_factor_all 0.049
loop_
_symmetry_equiv_pos_site_id
_symmetry_equiv_pos_as_xyz
1 '-x, -y, -z'
2 'x, y, z'
loop_
_atom_type_symbol
_atom_type_oxidation_number
Sr2+ 2
P5+ 5
Na1+ 1
O2- -2
loop_
_atom_site_label
_atom_site_type_symbol
_atom_site_symmetry_multiplicity
_atom_site_Wyckoff_symbol
_atom_site_fract_x
_atom_site_fract_y
_atom_site_fract_z
_atom_site_B_iso_or_equiv
_atom_site_occupancy
_atom_site_attached_hydrogens
Sr1 Sr2+ 2 i -0.01100(8) 0.26869(7) 0.35639(7) 0.0094(3) 1 0
P1 P5+ 2 i 0.1661(2) 0.2111(2) 0.7292(2) 0.0079(4) 1 0
P2 P5+ 2 i 0.2021(2) 0.6647(2) 0.0554(2) 0.0086(4) 1 0
P3 P5+ 2 i 0.3970(2) -0.1191(2) 0.2744(2) 0.0079(4) 1 0
Na1 Na1+ 2 i 0.5338(4) -0.3704(4) 0.6568(3) 0.0166(6) 1 0
O1 O2- 2 i -0.0870(7) -0.0559(6) 0.3422(6) 0.0153(10) 1 0
O2 O2- 2 i -0.3695(6) -0.1466(6) 0.1981(6) 0.0123(9) 1 0
O3 O2- 2 i -0.1788(6) -0.3851(6) 0.3962(6) 0.0115(9) 1 0
O4 O2- 2 i -0.0320(6) -0.2525(6) 0.0864(6) 0.0105(9) 1 0
O5 O2- 2 i 0.2515(7) -0.3447(6) -0.1378(6) 0.0135(10) 1 0
O6 O2- 2 i 0.2290(7) -0.5081(6) 0.1765(6) 0.0130(10) 1 0
O7 O2- 2 i 0.3122(6) -0.1711(6) 0.1070(6) 0.0129(10) 1 0
O8 O2- 2 i 0.3520(7) -0.2644(6) 0.4270(6) 0.0126(10) 1 0
O9 O2- 2 i 0.3377(7) 0.0831(6) 0.2961(6) 0.0144(10) 1 0
loop_
_atom_site_aniso_label
_atom_site_aniso_type_symbol
_atom_site_aniso_U_11
_atom_site_aniso_U_22
_atom_site_aniso_U_33
_atom_site_aniso_U_12
_atom_site_aniso_U_13
_atom_site_aniso_U_23
Sr1 Sr2+ 0.0113(4) 0.0043(4) 0.0130(4) -0.0016(2) -0.0039(2) 0.0013(2)
P1 P5+ 0.0089(8) 0.0044(8) 0.0103(8) -0.0014(6) -0.0025(6) 0.0020(6)
P2 P5+ 0.0104(8) 0.0057(8) 0.0096(8) -0.0011(6) -0.0020(6) 0.0006(6)
P3 P5+ 0.0088(8) 0.0043(8) 0.0102(8) -0.0008(6) -0.0016(6) 0.0015(6)
Na1 Na1+ 0.0132(13) 0.0198(14) 0.0154(14) -0.0002(11) -0.0030(10) 0.0037(11)
O1 O2- 0.017(2) 0.010(2) 0.021(2) -0.004(2) -0.002(2) -0.006(2)
O2 O2- 0.008(2) 0.014(2) 0.012(2) 0.002(2) -0.001(2) 0.007(2)
O3 O2- 0.015(2) 0.007(2) 0.012(2) -0.003(2) -0.004(2) 0.005(2)
O4 O2- 0.010(2) 0.013(2) 0.009(2) -0.002(2) -0.004(2) 0.000(2)
O5 O2- 0.014(2) 0.013(2) 0.013(2) -0.001(2) -0.002(2) 0.000(2)
O6 O2- 0.017(2) 0.007(2) 0.016(2) -0.004(2) -0.007(2) 0.005(2)
O7 O2- 0.015(2) 0.012(2) 0.012(2) -0.005(2) -0.004(2) 0.003(2)
O8 O2- 0.016(2) 0.011(2) 0.010(2) -0.004(2) -0.002(2) 0.003(2)
O9 O2- 0.013(2) 0.005(2) 0.024(3) 0.000(2) -0.002(2) 0.000(2)
#End of TTdata_418633-ICSD