
#(C) 2019 by FIZ Karlsruhe - Leibniz Institute for Information Infrastructure.  All rights reserved.
data_418677-ICSD
_database_code_ICSD 418677
_audit_creation_date 2009-02-01
_chemical_name_systematic
'Disodium hexafluorochromate(IV) bis(hydrofluoric acid)'
_chemical_formula_structural 'Na2 (Cr F6) (H F)2'
_chemical_formula_sum 'H2 Cr1 F8 Na2'
_exptl_crystal_density_diffrn 2.92
_cell_measurement_temperature 200.
_publ_section_title

;
Alkali metal (Li+ - Cs+) salts with hexafluorochromate(V),
hexafluorochromate(IV), pentafluorochromate(IV), and
undecafluorodichromate(IV) anions
;
loop_
_citation_id
_citation_journal_full
_citation_year
_citation_journal_volume
_citation_page_first
_citation_page_last
_citation_journal_id_ASTM
primary 'European Journal of Inorganic Chemistry' 2008 2008 1795 1812 EJICFO
loop_
_publ_author_name
'Mazej, Z.'
'Goreshnik, E.'
_cell_length_a 7.395(4)
_cell_length_b 7.947(4)
_cell_length_c 5.386(3)
_cell_angle_alpha 90
_cell_angle_beta 115.247(7)
_cell_angle_gamma 90
_cell_volume 286.29
_cell_formula_units_Z 2
_symmetry_space_group_name_H-M 'C 1 2/m 1'
_symmetry_Int_Tables_number 12
_refine_ls_R_factor_all 0.0301
loop_
_symmetry_equiv_pos_site_id
_symmetry_equiv_pos_as_xyz
1 '-x, y, -z'
2 '-x, -y, -z'
3 'x, -y, z'
4 'x, y, z'
5 '-x+1/2, y+1/2, -z'
6 '-x+1/2, -y+1/2, -z'
7 'x+1/2, -y+1/2, z'
8 'x+1/2, y+1/2, z'
loop_
_atom_type_symbol
_atom_type_oxidation_number
Cr4+ 4
Na1+ 1
F1- -1
H1+ 1
F1- -1
loop_
_atom_site_label
_atom_site_type_symbol
_atom_site_symmetry_multiplicity
_atom_site_Wyckoff_symbol
_atom_site_fract_x
_atom_site_fract_y
_atom_site_fract_z
_atom_site_B_iso_or_equiv
_atom_site_occupancy
_atom_site_attached_hydrogens
Cr1 Cr4+ 2 a 1. 0. 1. 0.0082(4) 1 0
Na1 Na1+ 4 h 0.5 0.23726(19) 0.5 0.0144(5) 1 0
F1 F1- 4 i 0.5450(3) 0. 0.2718(5) 0.0149(5) 1 0
H1 H1+ 4 i 0.6317 0. 0.2355 0.018 1 0
F2 F1- 4 i 0.8590(3) 0. 1.2161(4) 0.0144(6) 1 0
F3 F1- 8 j 0.8412(2) 0.15993(19) 0.7784(3) 0.0140(5) 1 0
loop_
_atom_site_aniso_label
_atom_site_aniso_type_symbol
_atom_site_aniso_U_11
_atom_site_aniso_U_22
_atom_site_aniso_U_33
_atom_site_aniso_U_12
_atom_site_aniso_U_13
_atom_site_aniso_U_23
Cr1 Cr4+ 0.0088(5) 0.0113(5) 0.0046(5) 0. 0.0030(3) 0.
Na1 Na1+ 0.0162(7) 0.0167(8) 0.0131(8) 0. 0.0088(6) 0.
F1 F1- 0.0143(10) 0.0201(11) 0.0147(11) 0. 0.0103(9) 0.
F2 F1- 0.0132(10) 0.0225(12) 0.0100(11) 0. 0.0074(9) 0.
F3 F1- 0.0139(7) 0.0150(8) 0.0122(8) 0.0030(5) 0.0048(6) 0.0039(5)
#End of TTdata_418677-ICSD