
#(C) 2019 by FIZ Karlsruhe - Leibniz Institute for Information Infrastructure.  All rights reserved.
data_418671-ICSD
_database_code_ICSD 418671
_audit_creation_date 2009-02-01
_chemical_name_systematic 'Sodium hexafluorochromate(V) - II'
_chemical_formula_structural 'Na (Cr F6)'
_chemical_formula_sum 'Cr1 F6 Na1'
_chemical_name_structure_type LiSbF6
_exptl_crystal_density_diffrn 2.84
_cell_measurement_temperature 200.
_publ_section_title

;
Alkali metal (Li+ - Cs+) salts with hexafluorochromate(V),
hexafluorochromate(IV), pentafluorochromate(IV), and
undecafluorodichromate(IV) anions
;
loop_
_citation_id
_citation_journal_full
_citation_year
_citation_journal_volume
_citation_page_first
_citation_page_last
_citation_journal_id_ASTM
primary 'European Journal of Inorganic Chemistry' 2008 2008 1795 1812 EJICFO
loop_
_publ_author_name
'Mazej, Z.'
'Goreshnik, E.'
_cell_length_a 5.224(5)
_cell_length_b 5.224(5)
_cell_length_c 14.013(12)
_cell_angle_alpha 90
_cell_angle_beta 90
_cell_angle_gamma 120
_cell_volume 331.18
_cell_formula_units_Z 3
_symmetry_space_group_name_H-M 'R -3 H'
_symmetry_Int_Tables_number 148
_refine_ls_R_factor_all 0.0507
loop_
_symmetry_equiv_pos_site_id
_symmetry_equiv_pos_as_xyz
1 'x-y, x, -z'
2 'y, -x+y, -z'
3 '-x, -y, -z'
4 '-x+y, -x, z'
5 '-y, x-y, z'
6 'x, y, z'
7 'x-y+2/3, x+1/3, -z+1/3'
8 'y+2/3, -x+y+1/3, -z+1/3'
9 '-x+2/3, -y+1/3, -z+1/3'
10 '-x+y+2/3, -x+1/3, z+1/3'
11 '-y+2/3, x-y+1/3, z+1/3'
12 'x+2/3, y+1/3, z+1/3'
13 'x-y+1/3, x+2/3, -z+2/3'
14 'y+1/3, -x+y+2/3, -z+2/3'
15 '-x+1/3, -y+2/3, -z+2/3'
16 '-x+y+1/3, -x+2/3, z+2/3'
17 '-y+1/3, x-y+2/3, z+2/3'
18 'x+1/3, y+2/3, z+2/3'
loop_
_atom_type_symbol
_atom_type_oxidation_number
Cr5+ 5
Na1+ 1
F1- -1
loop_
_atom_site_label
_atom_site_type_symbol
_atom_site_symmetry_multiplicity
_atom_site_Wyckoff_symbol
_atom_site_fract_x
_atom_site_fract_y
_atom_site_fract_z
_atom_site_B_iso_or_equiv
_atom_site_occupancy
_atom_site_attached_hydrogens
Cr1 Cr5+ 3 a 1. 0. 1. 0.0171(10) 1 0
Na1 Na1+ 3 b 0.6667 0.3333 0.8333 0.0455(18) 1 0
F1 F1- 18 f 0.7428(11) 0.0240(12) 0.9295(3) 0.0561(14) 1 0
loop_
_atom_site_aniso_label
_atom_site_aniso_type_symbol
_atom_site_aniso_U_11
_atom_site_aniso_U_22
_atom_site_aniso_U_33
_atom_site_aniso_U_12
_atom_site_aniso_U_13
_atom_site_aniso_U_23
Cr1 Cr5+ 0.0187(11) 0.0187(11) 0.0138(12) 0.0093(5) 0. 0.
Na1 Na1+ 0.046(3) 0.046(3) 0.045(3) 0.0230(13) 0. 0.
F1 F1- 0.051(3) 0.059(3) 0.063(2) 0.030(2) -0.009(2) 0.003(2)
#End of TTdata_418671-ICSD