
#(C) 2019 by FIZ Karlsruhe - Leibniz Institute for Information Infrastructure.  All rights reserved.
data_418906-ICSD
_database_code_ICSD 418906
_audit_creation_date 2009-08-01
_audit_update_record 2012-02-01
_chemical_name_systematic 'Sodium tetraperoxomolybdate(VI) tetrahydrate'
_chemical_formula_structural 'Na2 (Mo (O2)4) (H2 O)4'
_chemical_formula_sum 'H8 Mo1 Na2 O12'
_chemical_name_structure_type Na2Mo(O2)4(H2O)4
_exptl_crystal_density_diffrn 2.34
_cell_measurement_temperature 293.
_publ_section_title

;
Structural investigation of tetraperoxo complexes of Mo(VI) and W(VI) X-ray
and theoretical studies
;
loop_
_citation_id
_citation_journal_full
_citation_year
_citation_journal_volume
_citation_page_first
_citation_page_last
_citation_journal_id_ASTM
primary 'Journal of Solid State Chemistry' 2009 182 973 982 JSSCBI
loop_
_publ_author_name
'Grzywa, M.'
'Lasocha, W.'
'Rutkowska-Zbik, D.'
_cell_length_a 9.112(2)
_cell_length_b 8.623(10)
_cell_length_c 12.396(2)
_cell_angle_alpha 90.
_cell_angle_beta 93.815(8)
_cell_angle_gamma 90.
_cell_volume 971.83
_cell_formula_units_Z 4
_symmetry_space_group_name_H-M 'P 1 21/c 1'
_symmetry_Int_Tables_number 14
_refine_ls_R_factor_all 0.0233
loop_
_symmetry_equiv_pos_site_id
_symmetry_equiv_pos_as_xyz
1 'x, -y+1/2, z+1/2'
2 '-x, -y, -z'
3 '-x, y+1/2, -z+1/2'
4 'x, y, z'
loop_
_atom_type_symbol
_atom_type_oxidation_number
Mo6+ 6
Na1+ 1
O1- -1
O2- -2
H1+ 1
loop_
_atom_site_label
_atom_site_type_symbol
_atom_site_symmetry_multiplicity
_atom_site_Wyckoff_symbol
_atom_site_fract_x
_atom_site_fract_y
_atom_site_fract_z
_atom_site_B_iso_or_equiv
_atom_site_occupancy
_atom_site_attached_hydrogens
Mo1 Mo6+ 4 e 0.23832(2) 0.23076(3) 0.627962(16) 0.01723(12) 1 0
Na1 Na1+ 4 e 0.18567(12) -0.15161(14) 0.51660(9) 0.0276(3) 1 0
Na2 Na1+ 4 e 0.33415(12) -0.18493(13) 0.78134(8) 0.0251(2) 1 0
O1 O1- 4 e 0.1211(2) 0.4195(2) 0.65184(17) 0.0279(4) 1 0
O2 O1- 4 e 0.1672(2) 0.3392(2) 0.75431(16) 0.0291(4) 1 0
O3 O1- 4 e 0.3602(2) 0.0462(2) 0.61109(18) 0.0311(5) 1 0
O4 O1- 4 e 0.3362(3) 0.0824(3) 0.72587(18) 0.0377(5) 1 0
O5 O1- 4 e 0.3477(2) 0.3414(3) 0.52173(17) 0.0314(5) 1 0
O6 O1- 4 e 0.4135(2) 0.3660(2) 0.63292(17) 0.0277(4) 1 0
O7 O1- 4 e 0.0599(2) 0.1095(3) 0.6156(2) 0.0392(5) 1 0
O8 O1- 4 e 0.1051(2) 0.1623(3) 0.50889(19) 0.0437(6) 1 0
O9 O2- 4 e 0.1130(2) -0.2473(2) 0.18228(17) 0.0249(4) 1 0
O10 O2- 4 e 0.1838(2) -0.3962(2) 0.42201(16) 0.0287(4) 1 0
O11 O2- 4 e 0.3312(2) -0.0706(2) 0.37234(15) 0.0264(4) 1 0
O12 O2- 4 e 0.4094(2) -0.2959(2) 0.61340(18) 0.0300(5) 1 0
H1 H1+ 4 e 0.016(3) -0.282(4) 0.202(3) 0.052(13) 1 0
H2 H1+ 4 e 0.114(5) -0.132(2) 0.175(4) 0.080(15) 1 0
H3 H1+ 4 e 0.217(4) -0.489(3) 0.462(3) 0.052(12) 1 0
H4 H1+ 4 e 0.080(2) -0.409(4) 0.396(3) 0.059(13) 1 0
H5 H1+ 4 e 0.441(2) -0.057(5) 0.376(4) 0.083(16) 1 0
H6 H1+ 4 e 0.288(4) 0.016(4) 0.326(3) 0.070(14) 1 0
H7 H1+ 4 e 0.501(3) -0.290(4) 0.574(3) 0.061(14) 1 0
H8 H1+ 4 e 0.386(5) -0.409(3) 0.619(4) 0.093(18) 1 0
loop_
_atom_site_aniso_label
_atom_site_aniso_type_symbol
_atom_site_aniso_U_11
_atom_site_aniso_U_22
_atom_site_aniso_U_33
_atom_site_aniso_U_12
_atom_site_aniso_U_13
_atom_site_aniso_U_23
Mo1 Mo6+ 0.01529(15) 0.01446(16) 0.02163(16) -0.00015(7) -0.00110(9) -0.00149(7)
Na1 Na1+ 0.0293(6) 0.0285(6) 0.0253(5) -0.0033(5) 0.0038(4) -0.0022(4)
Na2 Na1+ 0.0255(6) 0.0243(5) 0.0255(5) -0.0027(5) 0.0013(4) 0.0012(4)
O1 O1- 0.0247(10) 0.0212(10) 0.0377(11) 0.0034(8) 0.0026(8) -0.0039(8)
O2 O1- 0.0305(10) 0.0309(11) 0.0267(10) -0.0063(9) 0.0076(8) -0.0070(8)
O3 O1- 0.0244(10) 0.0198(9) 0.0486(12) 0.0052(8) -0.0025(9) -0.0037(9)
O4 O1- 0.0427(13) 0.0299(11) 0.0390(12) 0.0010(10) -0.0068(10) 0.0109(9)
O5 O1- 0.0341(11) 0.0308(11) 0.0303(10) 0.0039(9) 0.0094(9) 0.0049(8)
O6 O1- 0.0217(9) 0.0240(10) 0.0375(11) -0.0040(8) 0.0020(8) -0.0002(8)
O7 O1- 0.0246(11) 0.0326(12) 0.0600(15) -0.0095(9) 0.0008(10) -0.0091(11)
O8 O1- 0.0333(12) 0.0548(15) 0.0411(13) 0.0063(11) -0.0133(10) -0.0191(11)
O9 O2- 0.0201(10) 0.0265(10) 0.0285(11) -0.0009(7) 0.0041(8) -0.0001(7)
O10 O2- 0.0294(11) 0.0262(10) 0.0304(10) 0.0007(8) 0.0009(8) 0.0044(8)
O11 O2- 0.0248(10) 0.0244(10) 0.0301(10) 0.0007(8) 0.0024(8) 0.0031(8)
O12 O2- 0.0282(11) 0.0269(10) 0.0357(11) 0.0060(9) 0.0074(9) 0.0000(9)
#End of TTdata_418906-ICSD