
#(C) 2019 by FIZ Karlsruhe - Leibniz Institute for Information Infrastructure.  All rights reserved.
data_419594-ICSD
_database_code_ICSD 419594
_audit_creation_date 2010-08-01
_chemical_name_systematic
'Tridecaaquahexasodium diaqualithium hydrogenhexaniobate'
_chemical_formula_structural '(Na6 (H2 O)13) (Li (H2 O)2) (H (Nb6 O19))'
_chemical_formula_sum 'H31 Li1 Na6 Nb6 O34'
_exptl_crystal_density_diffrn 2.66
_cell_measurement_temperature 298.
_publ_section_title

;
3D extended polyoxoniobates/tantalates solid structure: preparation,
characterization and photocatalytic properties
;
loop_
_citation_id
_citation_journal_full
_citation_year
_citation_journal_volume
_citation_page_first
_citation_page_last
_citation_journal_id_ASTM
primary 'Journal of Molecular Structure' 2009 934 37 43 JMOSB4
loop_
_publ_author_name
'Shen Long'
'Xu Yanqing'
'Gao Yuanzhe'
'Cui Fengyun'
'Hu Changwen'
_cell_length_a 12.2207(12)
_cell_length_b 12.9797(13)
_cell_length_c 10.0722(10)
_cell_angle_alpha 90.
_cell_angle_beta 90.
_cell_angle_gamma 90.
_cell_volume 1597.66
_cell_formula_units_Z 2
_symmetry_space_group_name_H-M 'P n n m'
_symmetry_Int_Tables_number 58
_refine_ls_R_factor_all 0.0337
loop_
_symmetry_equiv_pos_site_id
_symmetry_equiv_pos_as_xyz
1 'x+1/2, -y+1/2, z+1/2'
2 '-x+1/2, y+1/2, z+1/2'
3 'x, y, -z'
4 '-x, -y, -z'
5 '-x+1/2, y+1/2, -z+1/2'
6 'x+1/2, -y+1/2, -z+1/2'
7 '-x, -y, z'
8 'x, y, z'
loop_
_atom_type_symbol
_atom_type_oxidation_number
Li1+ 1
Nb5+ 5
Na1+ 1
O2- -2
H1+ 1
O2- -2
H1+ 1
O2- -2
H1+ 1
O2- -2
H1+ 1
O2- -2
H1+ 1
O2- -2
H1+ 1
loop_
_atom_site_label
_atom_site_type_symbol
_atom_site_symmetry_multiplicity
_atom_site_Wyckoff_symbol
_atom_site_fract_x
_atom_site_fract_y
_atom_site_fract_z
_atom_site_B_iso_or_equiv
_atom_site_occupancy
_atom_site_attached_hydrogens
Li1 Li1+ 2 b 0.5 -0.5 0. 0.042(5) 1 0
Nb1 Nb5+ 8 h 0.63571(4) 0.02515(4) 0.17260(4) 0.01700(18) 1 0
Nb2 Nb5+ 4 g 0.53922(5) -0.17979(5) 0. 0.0162(2) 1 0
Na1 Na1+ 4 g 0.7345(4) 0.2366(4) 0. 0.0529(11) 1 0
Na2 Na1+ 4 g 0.7192(3) 0.1542(3) 0.5 0.0313(7) 1 0
Na3 Na1+ 4 g 0.5031(3) 0.3154(3) 0.5 0.0308(7) 1 0
O1 O2- 2 d 0.5 0. 0. 0.0159(14) 1 0
O2 O2- 8 h 0.6427(3) -0.1266(3) 0.1399(3) 0.0195(8) 1 0
O3 O2- 8 h 0.5848(3) 0.1693(3) 0.1358(3) 0.0209(8) 1 0
O4 O2- 4 g 0.7285(4) 0.0432(4) 0. 0.0212(11) 1 0
O5 O2- 4 f 0.5 0. 0.2808(5) 0.0194(11) 1 0
O6 O2- 8 h 0.7383(3) 0.0455(3) 0.2991(3) 0.0260(9) 1 0
O7 O2- 4 g 0.5774(5) -0.3124(4) 0. 0.0251(12) 1 0
O8 O2- 4 g 0.6958(8) 0.4043(7) 0. 0.081(3) 1 0
H1 H1+ 8 h 0.7219 0.4334 -0.0687 0.097 1 0
O9 O2- 8 h 0.8628(4) 0.2126(4) 0.1656(4) 0.0352(11) 1 0
H2 H1+ 8 h 0.8397 0.166 0.2177 0.042 1 0
H3 H1+ 8 h 0.8678 0.2681 0.2101 0.042 1 0
O10 O2- 4 g 0.5168(5) 0.1324(4) 0.5 0.0332(14) 1 0
H4 H1+ 8 h 0.5119 0.0944 0.4316 0.04 1 0
O11 O2- 8 h 0.6429(4) 0.2998(4) 0.6555(5) 0.0522(15) 1 0
H5 H1+ 8 h 0.7093 0.319 0.6573 0.063 1 0
H6 H1+ 8 h 0.6313 0.2605 0.7216 0.063 1 0
O12 O2- 8 h 0.5446(12) 0.5046(13) 0.5454(15) 0.037(4) 0.25 0
H7 H1+ 8 h 0.6124 0.516 0.5332 0.044 0.25 0
H8 H1+ 8 h 0.5324 0.5032 0.6284 0.044 0.25 0
O13 O2- 4 e 0.5 -0.5 -0.1739(15) 0.092(4) 1 0
H9 H1+ 8 h 0.50(5) -0.52(3) -0.254(19) 0.11 0.5 0
H10 H1+ 8 h 0.436(10) -0.471(10) -0.160(11) 0.11 0.75 0
loop_
_atom_site_aniso_label
_atom_site_aniso_type_symbol
_atom_site_aniso_U_11
_atom_site_aniso_U_22
_atom_site_aniso_U_33
_atom_site_aniso_U_12
_atom_site_aniso_U_13
_atom_site_aniso_U_23
Li1 Li1+ 0.022(11) 0.056(15) 0.049(12) -0.007(11) 0. 0.
Nb1 Nb5+ 0.0173(3) 0.0173(3) 0.0164(3) -0.00019(19) -0.00426(16) -0.00070(17)
Nb2 Nb5+ 0.0176(4) 0.0151(4) 0.0158(3) 0.0006(3) 0. 0.
Na1 Na1+ 0.049(2) 0.061(3) 0.049(2) -0.008(2) 0. 0.
Na2 Na1+ 0.0321(19) 0.0359(19) 0.0261(15) -0.0022(15) 0. 0.
Na3 Na1+ 0.0289(18) 0.0315(18) 0.0321(16) 0.0019(15) 0. 0.
O1 O2- 0.019(4) 0.017(4) 0.012(3) 0.004(3) 0. 0.
O2 O2- 0.0201(19) 0.0176(18) 0.0206(16) 0.0019(15) -0.0042(14) 0.0005(15)
O3 O2- 0.024(2) 0.0204(19) 0.0180(16) -0.0001(16) -0.0046(15) -0.0020(15)
O4 O2- 0.022(3) 0.023(3) 0.019(2) -0.002(2) 0. 0.
O5 O2- 0.023(3) 0.021(3) 0.014(2) -0.003(2) 0. 0.
O6 O2- 0.025(2) 0.029(2) 0.0232(17) -0.0021(17) -0.0077(16) -0.0013(16)
O7 O2- 0.025(3) 0.019(3) 0.031(3) 0.004(2) 0. 0.
O8 O2- 0.113(8) 0.096(7) 0.033(4) -0.061(6) 0. 0.
O9 O2- 0.044(3) 0.034(3) 0.028(2) -0.007(2) 0.0083(18) -0.0010(18)
O10 O2- 0.050(4) 0.025(3) 0.024(3) -0.006(3) 0. 0.
O11 O2- 0.040(3) 0.071(4) 0.046(3) -0.029(3) -0.016(2) 0.033(3)
O12 O2- 0.037(9) 0.038(9) 0.035(9) -0.001(9) -0.001(6) -0.006(7)
O13 O2- 0.078(8) 0.082(9) 0.115(9) -0.030(7) 0. 0.
#End of TTdata_419594-ICSD