
#(C) 2019 by FIZ Karlsruhe - Leibniz Institute for Information Infrastructure.  All rights reserved.
data_419587-ICSD
_database_code_ICSD 419587
_audit_creation_date 2009-08-01
_chemical_name_systematic 'Disodium manganate(II)'
_chemical_formula_structural 'Na2 (Mn O2)'
_chemical_formula_sum 'Mn1 Na2 O2'
_exptl_crystal_density_diffrn 3.25
_cell_measurement_temperature 296.
_publ_section_title 'Synthesis, crystal structure and properties of Na2 Mn O2'
loop_
_citation_id
_citation_journal_full
_citation_year
_citation_journal_volume
_citation_page_first
_citation_page_last
_citation_journal_id_ASTM
primary 'Zeitschrift fuer Anorganische und Allgemeine Chemie (1950) (DE)' 2009
635 211 215 ZAACAB
loop_
_publ_author_name
'Pfeiffer, S.'
'Jansen, M.'
_cell_length_a 12.5026(9)
_cell_length_b 12.1006(9)
_cell_length_c 6.0939(4)
_cell_angle_alpha 90.
_cell_angle_beta 117.9390(10)
_cell_angle_gamma 90.
_cell_volume 814.48
_cell_formula_units_Z 12
_symmetry_space_group_name_H-M 'C 1 2/c 1'
_symmetry_Int_Tables_number 15
_refine_ls_R_factor_all 0.0279
loop_
_symmetry_equiv_pos_site_id
_symmetry_equiv_pos_as_xyz
1 'x, -y, z+1/2'
2 '-x, -y, -z'
3 '-x, y, -z+1/2'
4 'x, y, z'
5 'x+1/2, -y+1/2, z+1/2'
6 '-x+1/2, -y+1/2, -z'
7 '-x+1/2, y+1/2, -z+1/2'
8 'x+1/2, y+1/2, z'
loop_
_atom_type_symbol
_atom_type_oxidation_number
Mn2+ 2
Na1+ 1
O2- -2
loop_
_atom_site_label
_atom_site_type_symbol
_atom_site_symmetry_multiplicity
_atom_site_Wyckoff_symbol
_atom_site_fract_x
_atom_site_fract_y
_atom_site_fract_z
_atom_site_B_iso_or_equiv
_atom_site_occupancy
_atom_site_attached_hydrogens
Mn1 Mn2+ 8 f 0.21231(3) 0.07983(3) 0.74368(5) 0.01205(8) 1 0
Mn2 Mn2+ 4 e 0. 0.31481(4) 0.25 0.01089(10) 1 0
Na1 Na1+ 8 f 0.10277(9) 0.42709(8) -0.27228(17) 0.02004(19) 1 0
Na2 Na1+ 8 f 0.29968(8) 0.29743(8) 0.73811(17) 0.01932(19) 1 0
Na3 Na1+ 4 e 0. -0.06033(11) 0.75 0.0271(3) 1 0
Na4 Na1+ 4 e 0. 0.19639(12) 0.75 0.0235(3) 1 0
O1 O2- 8 f 0.10211(13) 0.38537(13) 0.1020(3) 0.0148(3) 1 0
O2 O2- 8 f 0.11430(13) 0.21335(12) 0.5352(3) 0.0142(3) 1 0
O3 O2- 8 f 0.16435(15) 0.05601(13) 1.0183(3) 0.0156(3) 1 0
loop_
_atom_site_aniso_label
_atom_site_aniso_type_symbol
_atom_site_aniso_U_11
_atom_site_aniso_U_22
_atom_site_aniso_U_33
_atom_site_aniso_U_12
_atom_site_aniso_U_13
_atom_site_aniso_U_23
Mn1 Mn2+ 0.01247(15) 0.01354(14) 0.00925(13) 0.00065(10) 0.00435(11) 0.00099(10)
Mn2 Mn2+ 0.01156(19) 0.01285(19) 0.00804(17) 0. 0.00442(15) 0.
Na1 Na1+ 0.0194(4) 0.0267(5) 0.0135(4) -0.0038(4) 0.0072(3) 0.0006(3)
Na2 Na1+ 0.0196(4) 0.0198(4) 0.0205(4) -0.0020(3) 0.0111(4) -0.0062(3)
Na3 Na1+ 0.0231(7) 0.0162(6) 0.0238(7) 0. -0.0041(6) 0.
Na4 Na1+ 0.0241(7) 0.0275(7) 0.0260(7) 0. 0.0178(6) 0.
O1 O2- 0.0121(6) 0.0195(7) 0.0128(6) -0.0007(5) 0.0060(5) 0.0033(5)
O2 O2- 0.0135(6) 0.0167(7) 0.0114(6) 0.0027(5) 0.0051(5) 0.0045(5)
O3 O2- 0.0217(7) 0.0158(7) 0.0096(6) -0.0005(5) 0.0076(6) 0.0010(5)
#End of TTdata_419587-ICSD