
#(C) 2019 by FIZ Karlsruhe - Leibniz Institute for Information Infrastructure.  All rights reserved.
data_419948-ICSD
_database_code_ICSD 419948
_audit_creation_date 2009-02-01
_audit_update_record 2011-02-01
_chemical_name_systematic 'Sodium praseodymium nitride iodide (1/4/2/7)'
_chemical_formula_structural 'Na Pr4 N2 I7'
_chemical_formula_sum 'I7 N2 Na1 Pr4'
_chemical_name_structure_type NaLa4N2I7
_exptl_crystal_density_diffrn 5.52
_cell_measurement_temperature 100.
_publ_section_title
'Na La4 N2 I7: The first quaternary nitride iodide of the lanthanides'
loop_
_citation_id
_citation_journal_full
_citation_year
_citation_journal_volume
_citation_page_first
_citation_page_last
_citation_journal_id_ASTM
primary 'Zeitschrift fuer Anorganische und Allgemeine Chemie (1950) (DE)' 2008
634 2078 2078 ZAACAB
loop_
_publ_author_name
'Schurz, C.M.'
'Aniol, K.'
'Schleid, T.'
_cell_length_a 13.9412(9)
_cell_length_b 10.8578(7)
_cell_length_c 11.9389(8)
_cell_angle_alpha 90.
_cell_angle_beta 90.
_cell_angle_gamma 90.
_cell_volume 1807.2
_cell_formula_units_Z 4
_symmetry_space_group_name_H-M 'P n a 21'
_symmetry_Int_Tables_number 33
_refine_ls_R_factor_all 0.063
loop_
_symmetry_equiv_pos_site_id
_symmetry_equiv_pos_as_xyz
1 'x+1/2, -y+1/2, z'
2 '-x+1/2, y+1/2, z+1/2'
3 '-x, -y, z+1/2'
4 'x, y, z'
loop_
_atom_type_symbol
_atom_type_oxidation_number
Na1+ 1
Pr3+ 3
I1- -1
N3- -3
loop_
_atom_site_label
_atom_site_type_symbol
_atom_site_symmetry_multiplicity
_atom_site_Wyckoff_symbol
_atom_site_fract_x
_atom_site_fract_y
_atom_site_fract_z
_atom_site_B_iso_or_equiv
_atom_site_occupancy
_atom_site_attached_hydrogens
Na1 Na1+ 4 a 0.4061(8) 0.4545(12) 0.2500(11) 0.019(3) 1 0
Pr1 Pr3+ 4 a 0.08738(9) 0.37436(12) 0.31469(14) 0.0069(3) 1 0
Pr2 Pr3+ 4 a 0.41053(9) 0.10938(13) 0.05664(13) 0.007(3) 1 0
Pr3 Pr3+ 4 a 0.39540(9) 0.91097(12) 0.32142(14) 0.0070(3) 1 0
Pr4 Pr3+ 4 a 0.08618(9) 0.62669(13) 0.08006(12) 0.0071(3) 1 0
I1 I1- 4 a 0.03013(11) 0.81537(15) 0.29197(16) 0.0106(3) 1 0
I2 I1- 4 a 0.23774(11) 0.60001(16) 0.33268(15) 0.0091(3) 1 0
I3 I1- 4 a 0.01740(12) 0.14521(15) 0.46020(16) 0.0107(3) 1 0
I4 I1- 4 a 0.05523(12) 0.17608(15) 0.10947(16) 0.0107(3) 1 0
I5 I1- 4 a 0.25420(12) 0.42563(16) 0.03680(16) 0.0103(3) 1 0
I6 I1- 4 a 0.29485(11) 0.18806(15) 0.29849(15) 0.0089(3) 1 0
I7 I1- 4 a 0.27125(12) 0.86576(16) 0.08887(15) 0.0110(3) 1 0
N1 N3- 4 a 0.4946(14) 0.0043(19) 0.188(2) 0.010(4) 1 0
N2 N3- 4 a 0.5008(15) 0.0153(19) 0.443(2) 0.011(4) 1 0
loop_
_atom_site_aniso_label
_atom_site_aniso_type_symbol
_atom_site_aniso_U_11
_atom_site_aniso_U_22
_atom_site_aniso_U_33
_atom_site_aniso_U_12
_atom_site_aniso_U_13
_atom_site_aniso_U_23
Na1 Na1+ 0.010(5) 0.023(6) 0.025(7) 0.001(5) -0.001(5) -0.005(5)
Pr1 Pr3+ 0.0078(5) 0.0059(6) 0.0069(7) 0.0013(4) 0.0000(5) 0.0003(7)
Pr2 Pr3+ 0.0075(6) 0.0072(6) 0.0073(8) 0.0019(5) 0.0001(5) -0.0017(6)
Pr3 Pr3+ 0.0071(5) 0.0090(6) 0.0050(7) -0.0011(5) 0.0000(6) -0.0002(6)
Pr4 Pr3+ 0.0073(6) 0.0066(7) 0.0074(8) -0.0006(5) 0.0009(5) -0.0004(6)
I1 I1- 0.0111(7) 0.0068(7) 0.0140(9) 0.0004(6) 0.0009(6) -0.0029(7)
I2 I1- 0.0086(7) 0.0087(7) 0.0101(9) 0.0003(5) 0.0005(6) -0.0001(7)
I3 I1- 0.0125(8) 0.0065(7) 0.0132(9) 0.0007(6) 0.0014(6) 0.0017(7)
I4 I1- 0.0107(7) 0.0084(7) 0.0131(9) -0.0003(6) -0.0008(6) -0.0022(7)
I5 I1- 0.0111(7) 0.0094(7) 0.0103(9) 0.0005(6) -0.0013(6) -0.0001(7)
I6 I1- 0.0094(7) 0.0076(7) 0.0097(9) 0.0017(6) 0.0011(6) -0.0002(7)
I7 I1- 0.0128(7) 0.0118(8) 0.0082(9) -0.0056(6) -0.0017(7) 0.0006(7)
#End of TTdata_419948-ICSD