
#(C) 2019 by FIZ Karlsruhe - Leibniz Institute for Information Infrastructure.  All rights reserved.
data_419949-ICSD
_database_code_ICSD 419949
_audit_creation_date 2009-02-01
_audit_update_record 2011-02-01
_chemical_name_systematic 'Sodium tetraneodymium(III) dinitride heptaiodide'
_chemical_formula_structural 'Na Nd4 N2 I7'
_chemical_formula_sum 'I7 N2 Na1 Nd4'
_chemical_name_structure_type NaLa4N2I7
_exptl_crystal_density_diffrn 5.64
_cell_measurement_temperature 100.
_publ_section_title
'Na La4 N2 I7: The first quaternary nitride iodide of the lanthanides'
loop_
_citation_id
_citation_journal_full
_citation_year
_citation_journal_volume
_citation_page_first
_citation_page_last
_citation_journal_id_ASTM
primary 'Zeitschrift fuer Anorganische und Allgemeine Chemie (1950) (DE)' 2008
634 2078 2078 ZAACAB
loop_
_publ_author_name
'Schurz, C.M.'
'Aniol, K.'
'Schleid, T.'
_cell_length_a 13.9135(9)
_cell_length_b 10.8243(7)
_cell_length_c 11.8614(8)
_cell_angle_alpha 90.
_cell_angle_beta 90.
_cell_angle_gamma 90.
_cell_volume 1786.37
_cell_formula_units_Z 4
_symmetry_space_group_name_H-M 'P n a 21'
_symmetry_Int_Tables_number 33
_refine_ls_R_factor_all 0.0783
loop_
_symmetry_equiv_pos_site_id
_symmetry_equiv_pos_as_xyz
1 'x+1/2, -y+1/2, z'
2 '-x+1/2, y+1/2, z+1/2'
3 '-x, -y, z+1/2'
4 'x, y, z'
loop_
_atom_type_symbol
_atom_type_oxidation_number
Na1+ 1
Nd3+ 3
I1- -1
N3- -3
loop_
_atom_site_label
_atom_site_type_symbol
_atom_site_symmetry_multiplicity
_atom_site_Wyckoff_symbol
_atom_site_fract_x
_atom_site_fract_y
_atom_site_fract_z
_atom_site_B_iso_or_equiv
_atom_site_occupancy
_atom_site_attached_hydrogens
Na1 Na1+ 4 a 0.4059(12) 0.4588(16) 0.2500(16) 0.031(4) 1 0
Nd1 Nd3+ 4 a 0.08695(12) 0.37498(18) 0.31834(17) 0.0097(4) 1 0
Nd2 Nd3+ 4 a 0.41066(13) 0.10689(19) 0.06155(16) 0.0092(4) 1 0
Nd3 Nd3+ 4 a 0.39669(12) 0.91170(18) 0.32571(17) 0.0095(4) 1 0
Nd4 Nd3+ 4 a 0.08539(13) 0.62753(19) 0.08430(16) 0.0091(4) 1 0
I1 I1- 4 a 0.02844(16) 0.8151(3) 0.2941(2) 0.0133(5) 1 0
I2 I1- 4 a 0.23678(16) 0.5987(3) 0.3384(2) 0.0113(5) 1 0
I3 I1- 4 a 0.01607(16) 0.1461(3) 0.4624(2) 0.0131(5) 1 0
I4 I1- 4 a 0.05318(16) 0.1780(3) 0.1122(2) 0.0124(5) 1 0
I5 I1- 4 a 0.25327(17) 0.4286(3) 0.0394(2) 0.0130(5) 1 0
I6 I1- 4 a 0.29413(15) 0.1872(3) 0.3001(2) 0.0121(5) 1 0
I7 I1- 4 a 0.27213(16) 0.8638(3) 0.0954(2) 0.0140(5) 1 0
N1 N3- 4 a 0.494(2) 0.006(3) 0.194(3) 0.023(7) 1 0
N2 N3- 4 a 0.494(2) 0.015(3) 0.452(3) 0.024(7) 1 0
loop_
_atom_site_aniso_label
_atom_site_aniso_type_symbol
_atom_site_aniso_U_11
_atom_site_aniso_U_22
_atom_site_aniso_U_33
_atom_site_aniso_U_12
_atom_site_aniso_U_13
_atom_site_aniso_U_23
Na1 Na1+ 0.023(9) 0.018(9) 0.050(11) 0.011(8) 0.014(8) -0.020(9)
Nd1 Nd3+ 0.0083(8) 0.0132(10) 0.0076(8) 0.0012(7) -0.0009(8) -0.0020(9)
Nd2 Nd3+ 0.0065(8) 0.0146(10) 0.0064(9) 0.0034(8) 0.0006(7) -0.0012(8)
Nd3 Nd3+ 0.0068(8) 0.0162(10) 0.0054(8) -0.0006(7) 0.0018(8) -0.0009(9)
Nd4 Nd3+ 0.0064(8) 0.0152(11) 0.0056(9) -0.0006(8) 0.0019(7) 0.0001(8)
I1 I1- 0.0106(10) 0.0178(12) 0.0114(11) 0.0011(9) 0.0016(9) -0.0032(10)
I2 I1- 0.0102(10) 0.0138(11) 0.0100(12) 0.0000(9) 0.0006(9) 0.0026(10)
I3 I1- 0.0118(10) 0.0124(11) 0.0150(12) 0.0008(9) 0.0011(10) 0.0013(10)
I4 I1- 0.0100(10) 0.0164(12) 0.0109(11) 0.0004(9) -0.0019(9) -0.0005(10)
I5 I1- 0.0111(10) 0.0189(12) 0.0090(11) 0.0001(9) -0.0021(9) 0.0016(10)
I6 I1- 0.0094(10) 0.0168(12) 0.0102(11) 0.0011(9) -0.0003(9) 0.0022(10)
I7 I1- 0.0122(10) 0.0215(13) 0.0082(12) -0.0044(9) -0.0020(9) 0.0017(10)
#End of TTdata_419949-ICSD