
#(C) 2019 by FIZ Karlsruhe - Leibniz Institute for Information Infrastructure.  All rights reserved.
data_42-ICSD
_database_code_ICSD 42
_audit_creation_date 1980-01-01
_audit_update_record 2014-08-01
_chemical_name_systematic 'Telluric acid - sodium fluoride (1/1)'
_chemical_formula_structural '(Te (O H)6) (Na F)'
_chemical_formula_sum 'H6 F1 Na1 O6 Te1'
_chemical_name_structure_type Te(OH)6NaF
_exptl_crystal_density_diffrn 3.19
_publ_section_title
'Te (O H)6 * Na F, eine Struktur mit kurzen OH-F-Wasserstoffbruecken'
loop_
_citation_id
_citation_journal_full
_citation_year
_citation_journal_volume
_citation_page_first
_citation_page_last
_citation_journal_id_ASTM
primary

;
Acta Crystallographica, Section B: Structural Crystallography and Crystal
Chemistry
; 1976 32 1025 1028 ACBCAR
loop_
_publ_author_name
'Allmann, R.'
_cell_length_a 6.025(3)
_cell_length_b 6.025(3)
_cell_length_c 13.486(5)
_cell_angle_alpha 90.
_cell_angle_beta 90.
_cell_angle_gamma 120.
_cell_volume 423.96
_cell_formula_units_Z 3
_symmetry_space_group_name_H-M 'R 3 H'
_symmetry_Int_Tables_number 146
_refine_ls_R_factor_all 0.03
loop_
_symmetry_equiv_pos_site_id
_symmetry_equiv_pos_as_xyz
1 '-x+y, -x, z'
2 '-y, x-y, z'
3 'x, y, z'
4 '-x+y+2/3, -x+1/3, z+1/3'
5 '-y+2/3, x-y+1/3, z+1/3'
6 'x+2/3, y+1/3, z+1/3'
7 '-x+y+1/3, -x+2/3, z+2/3'
8 '-y+1/3, x-y+2/3, z+2/3'
9 'x+1/3, y+2/3, z+2/3'
loop_
_atom_type_symbol
_atom_type_oxidation_number
Te6+ 6
Na1+ 1
F1- -1
O2- -2
H1+ 1
loop_
_atom_site_label
_atom_site_type_symbol
_atom_site_symmetry_multiplicity
_atom_site_Wyckoff_symbol
_atom_site_fract_x
_atom_site_fract_y
_atom_site_fract_z
_atom_site_B_iso_or_equiv
_atom_site_occupancy
_atom_site_attached_hydrogens
Te1 Te6+ 3 a 0 0 0 . 1. 0
Na1 Na1+ 3 a 0 0 0.3755(7) 1.4 1. 0
F1 F1- 3 a 0 0 0.5555(9) 1.2 1. 0
O1 O2- 9 b 0.2670(31) 0.0069(24) 0.0791(9) 1.8 1. 0
O2 O2- 9 b -.2850(25) -.0503(19) -.0804(8) 0.8 1. 0
H1 H1+ 9 b 0.31(5) 0.14(5) 0.15(2) 6. 1. 0
H2 H1+ 9 b -.3 0.11 -.09 6. 1. 0
loop_
_atom_site_aniso_label
_atom_site_aniso_type_symbol
_atom_site_aniso_B_11
_atom_site_aniso_B_22
_atom_site_aniso_B_33
_atom_site_aniso_B_12
_atom_site_aniso_B_13
_atom_site_aniso_B_23
Te1 Te6+ 0.31(4) 0.31(4) 0.12(3) 0.155(4) 0 0
#End of TTdata_42-ICSD