
#(C) 2019 by FIZ Karlsruhe - Leibniz Institute for Information Infrastructure.  All rights reserved.
data_420039-ICSD
_database_code_ICSD 420039
_audit_creation_date 2009-08-01
_chemical_name_systematic 'Potassium sodium praseodymium pentaoxoniobate'
_chemical_formula_structural 'K Na Pr (Nb O5)'
_chemical_formula_sum 'K1 Na1 Nb1 O5 Pr1'
_chemical_name_structure_type BaLaMn2O5(tP18)
_exptl_crystal_density_diffrn 4.58
_cell_measurement_temperature 294.
_publ_section_title

;
Crystal growth of a new series of complex niobates, Ln K Na Nb O5 (Ln= La, Pr,
Nd, Sm, Eu, Gd and Tb): structural properties and photoluminescence
;
loop_
_citation_id
_citation_journal_full
_citation_year
_citation_journal_volume
_citation_page_first
_citation_page_last
_citation_journal_id_ASTM
primary 'Chemistry of Materials' 2009 21 1955 1961 CMATEX
loop_
_publ_author_name
'Roof, I.P.'
'Jagau, T.C.'
'Zeier, W.G.'
'Smith, M.D.'
'zur Loye, H.C.'
_cell_length_a 5.75250(10)
_cell_length_b 5.75250(10)
_cell_length_c 8.2405(2)
_cell_angle_alpha 90.
_cell_angle_beta 90.
_cell_angle_gamma 90.
_cell_volume 272.69
_cell_formula_units_Z 2
_symmetry_space_group_name_H-M 'P 4/n m m Z'
_symmetry_Int_Tables_number 129
_refine_ls_R_factor_all 0.0196
loop_
_symmetry_equiv_pos_site_id
_symmetry_equiv_pos_as_xyz
1 'y+1/2, x+1/2, -z'
2 '-y, x+1/2, -z'
3 'y+1/2, -x, -z'
4 '-y, -x, -z'
5 'x+1/2, y+1/2, -z'
6 '-x, y+1/2, -z'
7 'x+1/2, -y, -z'
8 '-x, -y, -z'
9 '-y+1/2, -x+1/2, z'
10 'y, -x+1/2, z'
11 '-y+1/2, x, z'
12 'y, x, z'
13 '-x+1/2, -y+1/2, z'
14 'x, -y+1/2, z'
15 '-x+1/2, y, z'
16 'x, y, z'
loop_
_atom_type_symbol
_atom_type_oxidation_number
Nb5+ 5
Pr3+ 3
K1+ 1
Na1+ 1
O2- -2
loop_
_atom_site_label
_atom_site_type_symbol
_atom_site_symmetry_multiplicity
_atom_site_Wyckoff_symbol
_atom_site_fract_x
_atom_site_fract_y
_atom_site_fract_z
_atom_site_B_iso_or_equiv
_atom_site_occupancy
_atom_site_attached_hydrogens
Nb1 Nb5+ 2 c 0.25 0.25 0.25651(4) 0.00725(8) 1 0
Pr1 Pr3+ 2 b 0.75 0.25 0.5 0.00795(7) 1 0
K1 K1+ 2 a 0.75 0.25 0. 0.0250(3) 1 0
Na1 Na1+ 2 c 0.25 0.25 0.7592(2) 0.0114(4) 1 0
O1 O2- 8 j 0.02035(18) 0.02035(18) 0.3271(2) 0.0114(3) 1 0
O2 O2- 2 c 0.25 0.25 0.0346(4) 0.0159(6) 1 0
loop_
_atom_site_aniso_label
_atom_site_aniso_type_symbol
_atom_site_aniso_U_11
_atom_site_aniso_U_22
_atom_site_aniso_U_33
_atom_site_aniso_U_12
_atom_site_aniso_U_13
_atom_site_aniso_U_23
Nb1 Nb5+ 0.00742(10) 0.00742(10) 0.00692(15) 0. 0. 0.
Pr1 Pr3+ 0.00714(8) 0.00714(8) 0.00957(11) 0. 0. 0.
K1 K1+ 0.0181(3) 0.0181(3) 0.0387(8) 0. 0. 0.
Na1 Na1+ 0.0117(5) 0.0117(5) 0.0108(8) 0. 0. 0.
O1 O2- 0.0089(4) 0.0089(4) 0.0165(7) -0.0016(5) 0.0002(4) 0.0002(4)
O2 O2- 0.0194(10) 0.0194(10) 0.0088(12) 0. 0. 0.
#End of TTdata_420039-ICSD