
#(C) 2019 by FIZ Karlsruhe - Leibniz Institute for Information Infrastructure.  All rights reserved.
data_420167-ICSD
_database_code_ICSD 420167
_audit_creation_date 2010-08-01
_chemical_name_systematic
'Disodium trilutetium(III) triiodide tris(tellurate(IV))'
_chemical_formula_structural 'Na2 Lu3 I3 (Te O3)4'
_chemical_formula_sum 'I3 Lu3 Na2 O12 Te4'
_exptl_crystal_density_diffrn 6.48
_cell_measurement_temperature 293.
_publ_section_title

;
The first alkali-metal lanthanoid(III) iodide oxotellurate(IV): Na2 Lu3 I3 [Te
O4]3
;
loop_
_citation_id
_citation_journal_full
_citation_year
_citation_journal_volume
_citation_page_first
_citation_page_last
_citation_journal_id_ASTM
primary 'Zeitschrift fuer Anorganische und Allgemeine Chemie (1950) (DE)' 2010
636 1050 1055 ZAACAB
loop_
_publ_author_name
'Zitzer, S.'
'Schleid, T.'
_cell_length_a 9.2169(5)
_cell_length_b 5.5271(3)
_cell_length_c 16.6437(9)
_cell_angle_alpha 90.
_cell_angle_beta 90.218(4)
_cell_angle_gamma 90.
_cell_volume 847.87
_cell_formula_units_Z 2
_symmetry_space_group_name_H-M 'P 1 2/c 1'
_symmetry_Int_Tables_number 13
_refine_ls_R_factor_all 0.0303
loop_
_symmetry_equiv_pos_site_id
_symmetry_equiv_pos_as_xyz
1 'x, -y, z+1/2'
2 '-x, -y, -z'
3 '-x, y, -z+1/2'
4 'x, y, z'
loop_
_atom_type_symbol
_atom_type_oxidation_number
Na1+ 1
Lu3+ 3
Te4+ 4
I1- -1
O2- -2
loop_
_atom_site_label
_atom_site_type_symbol
_atom_site_symmetry_multiplicity
_atom_site_Wyckoff_symbol
_atom_site_fract_x
_atom_site_fract_y
_atom_site_fract_z
_atom_site_B_iso_or_equiv
_atom_site_occupancy
_atom_site_attached_hydrogens
Na1 Na1+ 4 g 0.2976(4) 0.2585(6) 0.08650(19) 0.0235(7) 1 0
Lu1 Lu3+ 2 e 0. 0.24530(7) 0.25 0.00587(12) 1 0
Lu2 Lu3+ 4 g 0.00087(3) 0.25421(5) 0.915376(14) 0.00715(11) 1 0
Te1 Te4+ 4 g 0.24849(5) 0.20685(8) 0.73314(3) 0.00658(13) 1 0
Te2 Te4+ 4 g 0.24449(5) 0.28751(8) 0.43439(3) 0.00685(12) 1 0
I1 I1- 2 f 0.5 0.26046(13) 0.25 0.01907(19) 1 0
I2 I1- 4 g 0.49377(5) 0.24403(9) 0.91628(2) 0.01672(16) 1 0
O1 O2- 4 g 0.1347(5) 0.4548(9) 0.6888(3) 0.0117(10) 1 0
O2 O2- 4 g 0.1280(5) 0.0775(9) 0.8142(3) 0.0122(10) 1 0
O3 O2- 4 g 0.1585(5) 0.0097(9) 0.1593(3) 0.0092(10) 1 0
O4 O2- 4 g 0.1283(5) 0.0439(9) 0.4790(3) 0.0107(10) 1 0
O5 O2- 4 g 0.1198(5) 0.4142(9) 0.3547(3) 0.0113(10) 1 0
O6 O2- 4 g 0.1542(5) 0.4932(9) 0.0069(3) 0.0110(10) 1 0
loop_
_atom_site_aniso_label
_atom_site_aniso_type_symbol
_atom_site_aniso_U_11
_atom_site_aniso_U_22
_atom_site_aniso_U_33
_atom_site_aniso_U_12
_atom_site_aniso_U_13
_atom_site_aniso_U_23
Na1 Na1+ 0.0211(19) 0.0232(19) 0.0260(17) 0.0006(13) -0.0006(13) 0.0160(13)
Lu1 Lu3+ 0.0090(2) 0.0033(2) 0.0053(2) 0. -0.00193(16) 0.
Lu2 Lu3+ 0.0102(2) 0.0049(2) 0.00633(18) 0.00044(10) -0.00100(14) 0.00021(9)
Te1 Te4+ 0.0071(2) 0.0056(2) 0.0070(2) -0.00058(15) -0.00153(14) 0.00055(16)
Te2 Te4+ 0.0073(2) 0.0061(2) 0.0072(2) 0.00066(16) -0.00127(14) 0.00095(16)
I1 I1- 0.0249(5) 0.0125(4) 0.0199(4) 0. -0.0046(3) 0.
I2 I1- 0.0193(3) 0.0167(4) 0.0142(3) 0.00101(18) -0.0005(3) -0.00214(16)
O1 O2- 0.013(3) 0.007(2) 0.015(2) 0.0020(19) -0.0007(18) 0.0006(18)
O2 O2- 0.017(3) 0.012(3) 0.008(2) -0.002(2) 0.0035(18) 0.0026(18)
O3 O2- 0.007(2) 0.009(3) 0.012(2) 0.0006(17) -0.0015(17) 0.0037(17)
O4 O2- 0.014(3) 0.010(2) 0.008(2) -0.003(2) 0.0005(17) 0.0016(17)
O5 O2- 0.015(3) 0.009(3) 0.009(2) 0.0060(19) -0.0053(18) -0.0043(18)
O6 O2- 0.013(3) 0.007(3) 0.013(2) -0.0005(19) -0.0019(18) 0.0011(18)
#End of TTdata_420167-ICSD