
#(C) 2019 by FIZ Karlsruhe - Leibniz Institute for Information Infrastructure.  All rights reserved.
data_420248-ICSD
_database_code_ICSD 420248
_audit_creation_date 2010-08-01
_chemical_name_systematic

;
Trisodium oxonium (mue2-selenito-O,O,O)-(mue2-selenito-O,O)- dioxo-uranium(VI)
hydrate
;
_chemical_formula_structural 'Na3 (H3 O) (U O2 (Se O3)2)2 (H2 O)'
_chemical_formula_sum 'H5 Na3 O18 Se4 U2'
_exptl_crystal_density_diffrn 4.34
_cell_measurement_temperature 100.
_publ_section_title
'Synthesis and crystal structure of Na3 (H3 O) [U O2 (Se O3)2]2 . H2 O'
loop_
_citation_id
_citation_journal_full
_citation_year
_citation_journal_volume
_citation_page_first
_citation_page_last
_citation_journal_id_ASTM
primary Kristallografiya 2009 54 898 903 KRISAJ
loop_
_publ_author_name
'Serezhkina, L.B.'
'Vologzhanina, A.V.'
'Marukhnov, A.V.'
'Pushkin, D.V.'
'Serezhkin, V.N.'
_cell_length_a 9.543(6)
_cell_length_b 9.602(7)
_cell_length_c 11.742(8)
_cell_angle_alpha 66.693(16)
_cell_angle_beta 84.10(2)
_cell_angle_gamma 63.686(14)
_cell_volume 882.3
_cell_formula_units_Z 2
_symmetry_space_group_name_H-M 'P -1'
_symmetry_Int_Tables_number 2
_refine_ls_R_factor_all 0.0734
loop_
_symmetry_equiv_pos_site_id
_symmetry_equiv_pos_as_xyz
1 '-x, -y, -z'
2 'x, y, z'
loop_
_atom_type_symbol
_atom_type_oxidation_number
U6+ 6
Se4+ 4
Na1+ 1
O2- -2
H1+ 1
O2- -2
H1+ 1
loop_
_atom_site_label
_atom_site_type_symbol
_atom_site_symmetry_multiplicity
_atom_site_Wyckoff_symbol
_atom_site_fract_x
_atom_site_fract_y
_atom_site_fract_z
_atom_site_B_iso_or_equiv
_atom_site_occupancy
_atom_site_attached_hydrogens
U1 U6+ 2 i 0.64133(11) 0.84147(12) 0.80080(10) 0.0191(3) 1 0
U2 U6+ 2 i 0.81300(12) 0.36963(12) 0.79543(10) 0.0193(3) 1 0
Se1 Se4+ 2 i 0.9900(3) 0.9509(3) 0.7586(3) 0.0185(5) 1 0
Se2 Se4+ 2 i 1.0599(3) 0.5270(3) 0.7832(3) 0.0212(6) 1 0
Se3 Se4+ 2 i 0.3862(3) 0.7112(3) 0.7688(3) 0.0206(6) 1 0
Se4 Se4+ 2 i 0.4555(3) 0.3029(3) 0.7601(3) 0.0196(5) 1 0
Na1 Na1+ 2 i 1.2810(12) 0.6596(14) 0.5015(11) 0.028(2) 1 0
Na2 Na1+ 2 i 0.4244(13) 0.2388(14) 0.4883(10) 0.027(2) 1 0
Na3 Na1+ 2 i 0.8709(12) 0.9116(14) 0.5173(11) 0.029(2) 1 0
O1 O2- 2 i 0.624(2) 0.944(2) 0.6310(17) 0.0191(3) 1 0
O2 O2- 2 i 0.655(2) 0.743(2) 0.9653(17) 0.0191(3) 1 0
O3 O2- 2 i 0.777(2) 0.449(2) 0.6289(17) 0.0193(3) 1 0
O4 O2- 2 i 0.846(2) 0.296(2) 0.9594(18) 0.0193(3) 1 0
O5 O2- 2 i 0.369(2) 0.883(2) 0.787(2) 0.031(5) 1 0
O6 O2- 2 i 0.498(2) 1.094(2) 0.8204(19) 0.022(2) 1 0
O7 O2- 2 i 0.849(2) 0.885(2) 0.8242(16) 0.018(3) 1 0
O8 O2- 2 i 0.856(2) 0.612(3) 0.785(2) 0.028(4) 1 0
O9 O2- 2 i 0.590(2) 0.624(2) 0.784(2) 0.022(2) 1 0
O10 O2- 2 i 0.615(2) 0.289(2) 0.8231(19) 0.022(2) 1 0
O11 O2- 2 i 0.962(2) 0.096(2) 0.8147(17) 0.023(4) 1 0
O12 O2- 2 i 1.077(2) 0.348(2) 0.7679(19) 0.022(2) 1 0
O13 O2- 2 i 0.924(2) 1.062(3) 0.6117(19) 0.025(4) 1 0
O14 O2- 2 i 1.085(2) 0.653(2) 0.6495(19) 0.029(5) 1 0
O15 O2- 2 i 0.342(3) 0.784(2) 0.619(2) 0.033(5) 1 0
O16 O2- 2 i 0.487(2) 0.350(2) 0.6108(17) 0.021(4) 1 0
O17 O2- 2 i 0.784(2) 0.811(3) 0.4027(16) 0.026(4) 1 0
H1 H1+ 2 i 0.7405 0.8746 0.3292 0.039 1 0
H2 H1+ 2 i 0.8596 0.7259 0.3942 0.039 1 0
O18 O2- 2 i 0.238(3) 1.028(3) 0.9653(18) 0.034(4) 1 0
H3 H1+ 2 i 0.2853 0.9743 0.9195 0.051 1 0
H4 H1+ 2 i 0.1829 1.1292 0.9154 0.051 1 0
H5 H1+ 2 i 0.3069 0.9965 1.022 0.051 1 0
loop_
_atom_site_aniso_label
_atom_site_aniso_type_symbol
_atom_site_aniso_U_11
_atom_site_aniso_U_22
_atom_site_aniso_U_33
_atom_site_aniso_U_12
_atom_site_aniso_U_13
_atom_site_aniso_U_23
U1 U6+ 0.0193(5) 0.0156(5) 0.0264(5) -0.0095(4) 0.0032(4) -0.0102(4)
U2 U6+ 0.0188(5) 0.0155(5) 0.0277(5) -0.0094(4) 0.0028(4) -0.0104(4)
Se1 Se4+ 0.0176(13) 0.0152(11) 0.0254(13) -0.0087(10) 0.0025(10) -0.0088(10)
Se2 Se4+ 0.0187(13) 0.0166(12) 0.0300(14) -0.0088(10) 0.0010(11) -0.0093(11)
Se3 Se4+ 0.0196(13) 0.0172(12) 0.0302(14) -0.0100(10) 0.0043(11) -0.0126(11)
Se4 Se4+ 0.0199(13) 0.0136(11) 0.0280(14) -0.0084(10) 0.0022(10) -0.0097(11)
Na1 Na1+ 0.023(6) 0.028(6) 0.038(6) -0.013(5) 0.007(5) -0.017(5)
Na2 Na1+ 0.032(6) 0.031(6) 0.024(6) -0.019(5) 0.004(5) -0.013(5)
Na3 Na1+ 0.020(5) 0.030(6) 0.037(6) -0.011(5) 0.006(5) -0.016(5)
O1 O2- 0.0193(5) 0.0156(5) 0.0264(5) -0.0095(4) 0.0032(4) -0.0102(4)
O2 O2- 0.0193(5) 0.0156(5) 0.0264(5) -0.0095(4) 0.0032(4) -0.0102(4)
O3 O2- 0.0188(5) 0.0155(5) 0.0277(5) -0.0094(4) 0.0028(4) -0.0104(4)
O4 O2- 0.0188(5) 0.0155(5) 0.0277(5) -0.0094(4) 0.0028(4) -0.0104(4)
O5 O2- 0.029(11) 0.022(10) 0.051(13) -0.012(8) 0.014(10) -0.025(10)
O6 O2- 0.019(5) 0.013(4) 0.036(6) -0.012(4) -0.001(4) -0.006(4)
O7 O2- 0.021(9) 0.012(8) 0.016(8) -0.005(7) 0.003(7) -0.004(7)
O8 O2- 0.011(9) 0.041(12) 0.046(12) -0.016(8) 0.004(8) -0.026(10)
O9 O2- 0.019(5) 0.013(4) 0.036(6) -0.012(4) -0.001(4) -0.006(4)
O10 O2- 0.019(5) 0.013(4) 0.036(6) -0.012(4) -0.001(4) -0.006(4)
O11 O2- 0.038(11) 0.006(7) 0.013(9) -0.004(7) 0.000(8) 0.000(7)
O12 O2- 0.019(5) 0.013(4) 0.036(6) -0.012(4) -0.001(4) -0.006(4)
O13 O2- 0.028(11) 0.033(11) 0.028(10) -0.022(9) 0.004(8) -0.015(9)
O14 O2- 0.018(9) 0.024(10) 0.034(11) -0.003(8) 0.009(8) -0.010(9)
O15 O2- 0.046(13) 0.020(10) 0.035(12) -0.018(9) 0.011(10) -0.010(9)
O16 O2- 0.035(11) 0.025(10) 0.013(8) -0.018(9) 0.010(8) -0.012(8)
O17 O2- 0.022(9) 0.038(12) 0.019(8) -0.014(9) 0.001(8) -0.009(8)
O18 O2- 0.035(10) 0.011(9) 0.042(11) -0.001(8) -0.020(11) -0.003(9)
#End of TTdata_420248-ICSD