
#(C) 2019 by FIZ Karlsruhe - Leibniz Institute for Information Infrastructure.  All rights reserved.
data_420221-ICSD
_database_code_ICSD 420221
_audit_creation_date 2009-08-01
_chemical_name_systematic 'Sodium dithiolithiomanganate(II)'
_chemical_formula_structural 'Na (Li Mn) S2'
_chemical_formula_sum 'Li1 Mn1 Na1 S2'
_chemical_name_structure_type La2O3
_exptl_crystal_density_diffrn 2.57
_cell_measurement_temperature 153.
_publ_section_title

;
Synthesis of Li(x) Na(2-x) Mn2 S3 and Li Na Mn S2 through redox-induced ion
exchange
;
loop_
_citation_id
_citation_journal_full
_citation_year
_citation_journal_volume
_citation_page_first
_citation_page_last
_citation_journal_id_ASTM
primary 'Journal of Solid State Chemistry' 2009 182 580 585 JSSCBI
loop_
_publ_author_name
'Luthy, J.A.'
'Goodman, P.L.'
'Martin, B.R.'
_cell_length_a 4.0479(6)
_cell_length_b 4.0479(6)
_cell_length_c 6.7759(14)
_cell_angle_alpha 90.
_cell_angle_beta 90.
_cell_angle_gamma 120.
_cell_volume 96.15
_cell_formula_units_Z 1
_symmetry_space_group_name_H-M 'P -3 m 1'
_symmetry_Int_Tables_number 164
_refine_ls_R_factor_all 0.0175
loop_
_symmetry_equiv_pos_site_id
_symmetry_equiv_pos_as_xyz
1 'x-y, -y, -z'
2 '-x, -x+y, -z'
3 'y, x, -z'
4 'x-y, x, -z'
5 'y, -x+y, -z'
6 '-x, -y, -z'
7 '-x+y, y, z'
8 'x, x-y, z'
9 '-y, -x, z'
10 '-x+y, -x, z'
11 '-y, x-y, z'
12 'x, y, z'
loop_
_atom_type_symbol
_atom_type_oxidation_number
Li1+ 1
Mn2+ 2
S2- -2
Na1+ 1
loop_
_atom_site_label
_atom_site_type_symbol
_atom_site_symmetry_multiplicity
_atom_site_Wyckoff_symbol
_atom_site_fract_x
_atom_site_fract_y
_atom_site_fract_z
_atom_site_B_iso_or_equiv
_atom_site_occupancy
_atom_site_attached_hydrogens
Li1 Li1+ 2 d 0.3333 0.6667 0.63041(9) 0.0104(3) 0.5 0
Mn1 Mn2+ 2 d 0.3333 0.6667 0.63041(9) 0.0104(3) 0.5 0
S1 S2- 2 d 0.3333 0.6667 0.26474(8) 0.0098(3) 1 0
Na1 Na1+ 1 a 0. 0. 0. 0.0143(4) 1 0
loop_
_atom_site_aniso_label
_atom_site_aniso_type_symbol
_atom_site_aniso_U_11
_atom_site_aniso_U_22
_atom_site_aniso_U_33
_atom_site_aniso_U_12
_atom_site_aniso_U_13
_atom_site_aniso_U_23
Li1 Li1+ 0.0101(4) 0.0101(4) 0.0110(4) 0.00503(18) 0. 0.
Mn1 Mn2+ 0.0101(4) 0.0101(4) 0.0110(4) 0.00503(18) 0. 0.
S1 S2- 0.0095(3) 0.0095(3) 0.0104(4) 0.00477(17) 0. 0.
Na1 Na1+ 0.0143(5) 0.0143(5) 0.0144(8) 0.0072(3) 0. 0.
#End of TTdata_420221-ICSD