
#(C) 2019 by FIZ Karlsruhe - Leibniz Institute for Information Infrastructure.  All rights reserved.
data_420349-ICSD
_database_code_ICSD 420349
_audit_creation_date 2015-02-01
_chemical_name_systematic 'Potassium sodium sulfate(VI)'
_chemical_formula_structural '(K1.43 Na0.57) (S O4)'
_chemical_formula_sum 'K1.43 Na0.57 O4 S1'
_chemical_name_structure_type K3Na(SO4)2
_exptl_crystal_density_diffrn 2.7
_cell_measurement_temperature 293.
_publ_section_title 'Dipotassium hexafluorosilicate'
loop_
_citation_id
_citation_journal_full
_citation_year
_citation_journal_volume
_citation_page_first
_citation_page_last
_citation_journal_id_ASTM
primary 'Private Communication' 2009 2009 1 1 PRICO6
loop_
_publ_author_name
'Meetsma, A.'
'Karray, Mahdi'
'Jarraya, Khaled'
_cell_length_a 5.670(5)
_cell_length_b 5.670(5)
_cell_length_c 7.306(5)
_cell_angle_alpha 90.
_cell_angle_beta 90.
_cell_angle_gamma 120.
_cell_volume 203.41
_cell_formula_units_Z 2
_symmetry_space_group_name_H-M 'P -3 m 1'
_symmetry_Int_Tables_number 164
_refine_ls_R_factor_all 0.0239
loop_
_symmetry_equiv_pos_site_id
_symmetry_equiv_pos_as_xyz
1 'x-y, -y, -z'
2 '-x, -x+y, -z'
3 'y, x, -z'
4 'x-y, x, -z'
5 'y, -x+y, -z'
6 '-x, -y, -z'
7 '-x+y, y, z'
8 'x, x-y, z'
9 '-y, -x, z'
10 '-x+y, -x, z'
11 '-y, x-y, z'
12 'x, y, z'
loop_
_atom_type_symbol
_atom_type_oxidation_number
K1+ 1
Na1+ 1
K1+ 1
Na1+ 1
K1+ 1
S6+ 6
O2- -2
loop_
_atom_site_label
_atom_site_type_symbol
_atom_site_symmetry_multiplicity
_atom_site_Wyckoff_symbol
_atom_site_fract_x
_atom_site_fract_y
_atom_site_fract_z
_atom_site_B_iso_or_equiv
_atom_site_occupancy
_atom_site_attached_hydrogens
K1 K1+ 1 a 0 0 0 0.02828(16) 1.007(4) 0
Na1 Na1+ 1 b 0 0 -0.5 0.0173(4) 0.96(3) 0
K2 K1+ 1 b 0 0 -0.5 0.0173(4) 0.04(2) 0
Na2 Na1+ 2 d -0.3333 -0.6667 -0.31709(5) 0.01683(14) 0.088(17) 0
K3 K1+ 2 d -0.3333 -0.6667 -0.31709(5) 0.01683(14) 0.909(12) 0
S1 S6+ 2 d -0.3333 -0.6667 0.23472(4) 0.01155(7) 1 0
O1 O2- 2 d -0.3333 -0.6667 0.0359(2) 0.0367(4) 1 0
O2 O2- 6 i -0.19220(8) -0.38440(15) 0.30381(13) 0.02577(16) 1 0
loop_
_atom_site_aniso_label
_atom_site_aniso_type_symbol
_atom_site_aniso_U_11
_atom_site_aniso_U_22
_atom_site_aniso_U_33
_atom_site_aniso_U_12
_atom_site_aniso_U_13
_atom_site_aniso_U_23
K1 K1+ 0.0344(2) 0.0344(2) 0.0161(2) 0.01718(11) 0 0
Na1 Na1+ 0.0166(5) 0.0166(5) 0.0188(6) 0.0083(2) 0 0
K2 K1+ 0.0166(5) 0.0166(5) 0.0188(6) 0.0083(2) 0 0
Na2 Na1+ 0.01622(14) 0.01622(14) 0.01805(17) 0.00811(7) 0 0
K3 K1+ 0.01622(14) 0.01622(14) 0.01805(17) 0.00811(7) 0 0
S1 S6+ 0.01137(9) 0.01137(9) 0.01191(12) 0.00569(4) 0 0
O1 O2- 0.0489(6) 0.0489(6) 0.0124(4) 0.0244(3) 0 0
O2 O2- 0.0217(2) 0.0145(3) 0.0387(4) 0.00723(13) -0.00464(13) -0.0093(3)
#End of TTdata_420349-ICSD