
#(C) 2019 by FIZ Karlsruhe - Leibniz Institute for Information Infrastructure.  All rights reserved.
data_420335-ICSD
_database_code_ICSD 420335
_audit_creation_date 2009-08-01
_chemical_name_systematic 'Cesium trisodium tetrauranyl tetraoxo dimolybdate'
_chemical_formula_structural 'Cs Na3 ((U O2)4 O4 (Mo2 O8))'
_chemical_formula_sum 'Cs1 Mo2 Na3 O20 U4'
_exptl_crystal_density_diffrn 5.66
_cell_measurement_temperature 293.
_publ_section_title

;
First mixed alkaline uranyl molybdates: synthesis and crystal structures of Cs
Na3 [(U O2)4 O4 (Mo2 O8)] and Cs2 Na8 [(U O2)8 O8 (Mo5 O20)]
;
loop_
_citation_id
_citation_journal_full
_citation_year
_citation_journal_volume
_citation_page_first
_citation_page_last
_citation_journal_id_ASTM
primary 'Zeitschrift fuer Anorganische und Allgemeine Chemie (1950) (DE)' 2009
635 1231 1235 ZAACAB
loop_
_publ_author_name
'Nazarchuk, E.V.'
'Siidra, O.I.'
'Krivovichev, S.V.'
'Malcherek, T.'
'Depmeier, W.'
_cell_length_a 6.4655(13)
_cell_length_b 6.9057(10)
_cell_length_c 11.381(2)
_cell_angle_alpha 84.325(10)
_cell_angle_beta 77.906(9)
_cell_angle_gamma 80.230(9)
_cell_volume 488.6
_cell_formula_units_Z 1
_symmetry_space_group_name_H-M 'P -1'
_symmetry_Int_Tables_number 2
_refine_ls_R_factor_all 0.0606
loop_
_symmetry_equiv_pos_site_id
_symmetry_equiv_pos_as_xyz
1 '-x, -y, -z'
2 'x, y, z'
loop_
_atom_type_symbol
_atom_type_oxidation_number
U0+ 0
Mo0+ 0
Cs0+ 0
Na0+ 0
O0+ 0
loop_
_atom_site_label
_atom_site_type_symbol
_atom_site_symmetry_multiplicity
_atom_site_Wyckoff_symbol
_atom_site_fract_x
_atom_site_fract_y
_atom_site_fract_z
_atom_site_B_iso_or_equiv
_atom_site_occupancy
_atom_site_attached_hydrogens
U1 U0+ 2 i 0.49132(6) 0.75808(5) 0.43650(3) 0.01015(18) 1 0
U2 U0+ 2 i 0.54056(6) 0.73418(5) 0.75607(3) 0.01103(18) 1 0
Mo1 Mo0+ 2 i 0.60976(15) 1.17530(13) 0.90047(8) 0.0130(2) 1 0
Cs1 Cs0+ 1 c 0. 0.5 1. 0.0539(5) 1 0
Na1 Na0+ 2 i 1.0524(9) 0.9802(8) 0.6670(5) 0.0275(13) 1 0
Na2 Na0+ 1 g 1. 0.5 0.5 0.039(2) 1 0
O1 O0+ 2 i 0.4357(16) 1.1589(12) 1.0539(7) 0.0199(17) 1 0
O2 O0+ 2 i 0.4667(16) 0.9196(12) 0.6030(8) 0.0172(16) 1 0
O3 O0+ 2 i 0.1995(18) 0.8093(17) 0.4699(10) 0.025(2) 1 0
O4 O0+ 2 i 0.7789(15) 0.7157(16) 0.3928(9) 0.0205(18) 1 0
O5 O0+ 2 i 0.5281(18) 1.1073(14) 0.7704(8) 0.0250(19) 1 0
O6 O0+ 2 i 0.8248(17) 0.7242(16) 0.7057(10) 0.023(2) 1 0
O7 O0+ 2 i 0.4665(15) 0.4576(12) 0.3911(7) 0.0165(15) 1 0
O8 O0+ 2 i 0.2577(15) 0.7480(16) 0.8140(10) 0.0226(19) 1 0
O9 O0+ 2 i 0.595(2) 1.4299(14) 0.8721(8) 0.031(2) 1 0
O10 O0+ 2 i 0.8788(16) 1.0953(18) 0.8898(11) 0.032(2) 1 0
loop_
_atom_site_aniso_label
_atom_site_aniso_type_symbol
_atom_site_aniso_U_11
_atom_site_aniso_U_22
_atom_site_aniso_U_33
_atom_site_aniso_U_12
_atom_site_aniso_U_13
_atom_site_aniso_U_23
U1 U0+ 0.0108(2) 0.0081(3) 0.0117(2) -0.00071(16) -0.00364(14) 0.00023(15)
U2 U0+ 0.0124(2) 0.0104(3) 0.0102(2) -0.00118(16) -0.00285(14) 0.00026(16)
Mo1 Mo0+ 0.0172(4) 0.0112(4) 0.0103(4) -0.0005(3) -0.0039(3) 0.0000(3)
Cs1 Cs0+ 0.0336(8) 0.0699(12) 0.0596(10) -0.0284(8) -0.0093(7) 0.0250(9)
Na1 Na0+ 0.018(2) 0.025(3) 0.038(3) -0.006(2) 0.001(2) -0.002(3)
Na2 Na0+ 0.028(5) 0.031(5) 0.060(6) -0.003(4) -0.025(4) 0.013(4)
O1 O0+ 0.034(5) 0.013(4) 0.012(3) -0.004(3) -0.003(3) -0.002(3)
O2 O0+ 0.030(4) 0.006(3) 0.014(3) 0.002(3) -0.007(3) 0.001(3)
O3 O0+ 0.025(5) 0.025(5) 0.021(4) -0.002(4) 0.001(4) -0.004(4)
O4 O0+ 0.011(4) 0.021(4) 0.025(4) 0.006(3) -0.001(3) 0.005(3)
O5 O0+ 0.047(6) 0.018(4) 0.013(3) -0.005(4) -0.012(4) 0.002(3)
O6 O0+ 0.017(4) 0.024(5) 0.025(4) 0.008(4) -0.002(3) -0.004(4)
O7 O0+ 0.030(4) 0.008(3) 0.013(3) -0.005(3) -0.008(3) 0.001(3)
O8 O0+ 0.010(4) 0.026(5) 0.027(4) 0.006(3) -0.001(3) 0.001(4)
O9 O0+ 0.061(7) 0.015(4) 0.018(4) -0.007(4) -0.013(4) 0.002(3)
O10 O0+ 0.016(4) 0.039(6) 0.040(6) -0.002(4) -0.006(4) -0.002(5)
#End of TTdata_420335-ICSD