
#(C) 2019 by FIZ Karlsruhe - Leibniz Institute for Information Infrastructure.  All rights reserved.
data_420799-ICSD
_database_code_ICSD 420799
_audit_creation_date 2016-02-01
_chemical_name_systematic 'Tribarium sodium antimony hexaoxide'
_chemical_formula_structural 'Ba3 Na Sb O6'
_chemical_formula_sum 'Ba3 Na1 O6 Sb1'
_chemical_name_structure_type K4CdCl6
_exptl_crystal_density_diffrn 5.97
_cell_measurement_temperature 298.
_publ_section_title 'Crystal grows of A3 A` M O6 oxides'
loop_
_citation_id
_citation_journal_full
_citation_year
_citation_journal_volume
_citation_page_first
_citation_page_last
_citation_journal_id_ASTM
primary 'Journal of Chemical Crystallography' 2010 40 945 949 JCCYEV
loop_
_publ_author_name
'Bharathy, M.'
'zur Loye, H.C.'
_cell_length_a 10.2544(6)
_cell_length_b 10.2544(6)
_cell_length_c 11.9693(13)
_cell_angle_alpha 90.
_cell_angle_beta 90.
_cell_angle_gamma 120.
_cell_volume 1089.98
_cell_formula_units_Z 6
_symmetry_space_group_name_H-M 'R -3 c H'
_symmetry_Int_Tables_number 167
_refine_ls_R_factor_all 0.0454
loop_
_symmetry_equiv_pos_site_id
_symmetry_equiv_pos_as_xyz
1 'x-y, -y, -z+1/2'
2 '-x, -x+y, -z+1/2'
3 'y, x, -z+1/2'
4 'x-y, x, -z'
5 'y, -x+y, -z'
6 '-x, -y, -z'
7 '-x+y, y, z+1/2'
8 'x, x-y, z+1/2'
9 '-y, -x, z+1/2'
10 '-x+y, -x, z'
11 '-y, x-y, z'
12 'x, y, z'
13 'x-y+2/3, -y+1/3, -z+5/6'
14 '-x+2/3, -x+y+1/3, -z+5/6'
15 'y+2/3, x+1/3, -z+5/6'
16 'x-y+2/3, x+1/3, -z+1/3'
17 'y+2/3, -x+y+1/3, -z+1/3'
18 '-x+2/3, -y+1/3, -z+1/3'
19 '-x+y+2/3, y+1/3, z+5/6'
20 'x+2/3, x-y+1/3, z+5/6'
21 '-y+2/3, -x+1/3, z+5/6'
22 '-x+y+2/3, -x+1/3, z+1/3'
23 '-y+2/3, x-y+1/3, z+1/3'
24 'x+2/3, y+1/3, z+1/3'
25 'x-y+1/3, -y+2/3, -z+1/6'
26 '-x+1/3, -x+y+2/3, -z+1/6'
27 'y+1/3, x+2/3, -z+1/6'
28 'x-y+1/3, x+2/3, -z+2/3'
29 'y+1/3, -x+y+2/3, -z+2/3'
30 '-x+1/3, -y+2/3, -z+2/3'
31 '-x+y+1/3, y+2/3, z+1/6'
32 'x+1/3, x-y+2/3, z+1/6'
33 '-y+1/3, -x+2/3, z+1/6'
34 '-x+y+1/3, -x+2/3, z+2/3'
35 '-y+1/3, x-y+2/3, z+2/3'
36 'x+1/3, y+2/3, z+2/3'
loop_
_atom_type_symbol
_atom_type_oxidation_number
Sb5+ 5
Ba2+ 2
Na1+ 1
O2- -2
loop_
_atom_site_label
_atom_site_type_symbol
_atom_site_symmetry_multiplicity
_atom_site_Wyckoff_symbol
_atom_site_fract_x
_atom_site_fract_y
_atom_site_fract_z
_atom_site_B_iso_or_equiv
_atom_site_occupancy
_atom_site_attached_hydrogens
Sb1 Sb5+ 6 b 0. 1. 0.5 0.0122(3) 1 0
Ba1 Ba2+ 18 e -0.3333 0.98249(7) 0.5833 0.0148(3) 1 0
Na1 Na1+ 6 a 0. 1. 0.25 0.0167(12) 1 0
O1 O2- 36 f 0.1495(5) 1.1673(5) 0.4016(4) 0.0159(8) 1 0
loop_
_atom_site_aniso_label
_atom_site_aniso_type_symbol
_atom_site_aniso_U_11
_atom_site_aniso_U_22
_atom_site_aniso_U_33
_atom_site_aniso_U_12
_atom_site_aniso_U_13
_atom_site_aniso_U_23
Sb1 Sb5+ 0.0110(4) 0.0110(4) 0.0147(5) 0.0055(2) 0. 0.
Ba1 Ba2+ 0.0134(4) 0.0135(4) 0.0175(4) 0.00670(19) 0.00122(12) 0.00061(6)
Na1 Na1+ 0.0165(19) 0.0165(19) 0.017(2) 0.0082(10) 0. 0.
O1 O2- 0.0132(19) 0.0145(19) 0.0174(15) 0.0050(16) 0.0000(14) 0.0008(14)
#End of TTdata_420799-ICSD