
#(C) 2019 by FIZ Karlsruhe - Leibniz Institute for Information Infrastructure.  All rights reserved.
data_420961-ICSD
_database_code_ICSD 420961
_audit_creation_date 2011-02-01
_chemical_name_systematic
'Natrium zirconium antimony phosphorus oxide (1.03/1.89/0.10/2.85/13.10)'
_chemical_formula_structural 'Na1.03 (Zr1.89 Sb0.10) P2.85 O13.10'
_chemical_formula_sum 'Na1.03 O13.1 P2.85 Sb0.1 Zr1.89'
_chemical_name_structure_type Na2TiFe(PO4)3
_exptl_crystal_density_diffrn 3.31
_cell_measurement_temperature 293.
_publ_section_title

;
Synthesis and structure refinement of polycrystalline solid solution: Na1+x
Zr2-x Sbx P3 O12 (x=0.1)
;
loop_
_citation_id
_citation_journal_full
_citation_year
_citation_journal_volume
_citation_page_first
_citation_page_last
_citation_journal_id_ASTM
primary 'Journal of Chemical Crystallography' 2008 38 357 362 JCCYEV
loop_
_publ_author_name
'Shrivastava, O.P.'
'Chourasia, R.'
_cell_length_a 8.77283(16)
_cell_length_b 8.77283
_cell_length_c 22.8375(7)
_cell_angle_alpha 90.
_cell_angle_beta 90.
_cell_angle_gamma 120.
_cell_volume 1522.15
_cell_formula_units_Z 6
_symmetry_space_group_name_H-M 'R -3 c H'
_symmetry_Int_Tables_number 167
_refine_ls_R_factor_all 0.0547
loop_
_symmetry_equiv_pos_site_id
_symmetry_equiv_pos_as_xyz
1 'x-y, -y, -z+1/2'
2 '-x, -x+y, -z+1/2'
3 'y, x, -z+1/2'
4 'x-y, x, -z'
5 'y, -x+y, -z'
6 '-x, -y, -z'
7 '-x+y, y, z+1/2'
8 'x, x-y, z+1/2'
9 '-y, -x, z+1/2'
10 '-x+y, -x, z'
11 '-y, x-y, z'
12 'x, y, z'
13 'x-y+2/3, -y+1/3, -z+5/6'
14 '-x+2/3, -x+y+1/3, -z+5/6'
15 'y+2/3, x+1/3, -z+5/6'
16 'x-y+2/3, x+1/3, -z+1/3'
17 'y+2/3, -x+y+1/3, -z+1/3'
18 '-x+2/3, -y+1/3, -z+1/3'
19 '-x+y+2/3, y+1/3, z+5/6'
20 'x+2/3, x-y+1/3, z+5/6'
21 '-y+2/3, -x+1/3, z+5/6'
22 '-x+y+2/3, -x+1/3, z+1/3'
23 '-y+2/3, x-y+1/3, z+1/3'
24 'x+2/3, y+1/3, z+1/3'
25 'x-y+1/3, -y+2/3, -z+1/6'
26 '-x+1/3, -x+y+2/3, -z+1/6'
27 'y+1/3, x+2/3, -z+1/6'
28 'x-y+1/3, x+2/3, -z+2/3'
29 'y+1/3, -x+y+2/3, -z+2/3'
30 '-x+1/3, -y+2/3, -z+2/3'
31 '-x+y+1/3, y+2/3, z+1/6'
32 'x+1/3, x-y+2/3, z+1/6'
33 '-y+1/3, -x+2/3, z+1/6'
34 '-x+y+1/3, -x+2/3, z+2/3'
35 '-y+1/3, x-y+2/3, z+2/3'
36 'x+1/3, y+2/3, z+2/3'
loop_
_atom_type_symbol
_atom_type_oxidation_number
Na1+ 1
Zr4+ 4
Sb3+ 3
P5+ 5
O2- -2
loop_
_atom_site_label
_atom_site_type_symbol
_atom_site_symmetry_multiplicity
_atom_site_Wyckoff_symbol
_atom_site_fract_x
_atom_site_fract_y
_atom_site_fract_z
_atom_site_B_iso_or_equiv
_atom_site_occupancy
_atom_site_attached_hydrogens
Na1 Na1+ 6 b 0. 0. 0. 0.07345 1. 0
Na2 Na1+ 18 e 0.634 0. 0.25 0.07338 0.01166 0
Zr1 Zr4+ 12 c 0. 0. 0.14567 0.03307 0.94456 0
Sb1 Sb3+ 12 c 0. 0. 0.14567 0.03346 0.04956 0
P1 P5+ 18 e 0.28888 0. 0.25 0.02426 0.94987 0
O1 O2- 36 f 0.17594 -0.02524 0.19628 0.05673 1.08611 0
O2 O2- 36 f 0.194 0.17051 0.08888 0.05673 1.098 0
#End of TTdata_420961-ICSD