
#(C) 2019 by FIZ Karlsruhe - Leibniz Institute for Information Infrastructure.  All rights reserved.
data_421207-ICSD
_database_code_ICSD 421207
_audit_creation_date 2012-02-01
_chemical_name_systematic
'Hexaammonium tetrasodium dihydroxododecatungstate 14-hydrate'
_chemical_formula_structural '(N H4)6 Na4 (H2 W12 O42) (H2 O)14'
_chemical_formula_sum 'H54 N6 Na4 O56 W12'
_exptl_crystal_density_diffrn 4.28
_cell_measurement_temperature 298.
_publ_section_title

;
Synthesis and characterization of a new pure inorganic 2D network based on (H2
W12 O42)(10-)
;
loop_
_citation_id
_citation_journal_full
_citation_year
_citation_journal_volume
_citation_page_first
_citation_page_last
_citation_journal_id_ASTM
primary 'Jiegou Huaxue ' 2010 29 1425 1430 JHUADF
loop_
_publ_author_name
'Hao, Qing Hua'
'Han, Zhan Gang'
'Wu, Jing Jing'
'Wang, Yan Na'
_cell_length_a 14.1497(15)
_cell_length_b 15.9414(16)
_cell_length_c 22.931(2)
_cell_angle_alpha 90.
_cell_angle_beta 90.
_cell_angle_gamma 90.
_cell_volume 5172.45
_cell_formula_units_Z 4
_symmetry_space_group_name_H-M 'P b c a'
_symmetry_Int_Tables_number 61
_refine_ls_R_factor_all 0.0674
loop_
_symmetry_equiv_pos_site_id
_symmetry_equiv_pos_as_xyz
1 'x+1/2, y, -z+1/2'
2 'x, -y+1/2, z+1/2'
3 '-x+1/2, y+1/2, z'
4 '-x, -y, -z'
5 '-x+1/2, -y, z+1/2'
6 '-x, y+1/2, -z+1/2'
7 'x+1/2, -y+1/2, -z'
8 'x, y, z'
loop_
_atom_type_symbol
_atom_type_oxidation_number
W6+ 6
Na1+ 1
O2- -2
H1+ 1
O2- -2
H1+ 1
O2- -2
H1+ 1
O2- -2
H1+ 1
O2- -2
H1+ 1
O2- -2
H1+ 1
O2- -2
H1+ 1
O2- -2
H1+ 1
N3- -3
H1+ 1
N3- -3
H1+ 1
N3- -3
H1+ 1
loop_
_atom_site_label
_atom_site_type_symbol
_atom_site_symmetry_multiplicity
_atom_site_Wyckoff_symbol
_atom_site_fract_x
_atom_site_fract_y
_atom_site_fract_z
_atom_site_B_iso_or_equiv
_atom_site_occupancy
_atom_site_attached_hydrogens
W1 W6+ 8 c 1.07153(8) 0.85619(6) 0.36386(5) 0.0109(3) 1 0
W2 W6+ 8 c 0.95395(7) 0.82878(6) 0.50844(5) 0.0082(3) 1 0
W3 W6+ 8 c 0.83219(7) 0.93158(6) 0.60973(4) 0.0106(3) 1 0
W4 W6+ 8 c 0.72870(7) 0.95379(6) 0.46443(4) 0.0106(3) 1 0
W5 W6+ 8 c 0.83804(7) 0.84059(6) 0.36538(5) 0.0109(3) 1 0
W6 W6+ 8 c 0.93168(7) 1.05936(6) 0.38877(4) 0.0083(3) 1 0
Na1 Na1+ 8 c 0.9504(7) 0.8466(7) 0.2160(5) 0.017(2) 1 0
Na2 Na1+ 8 c 0.5031(12) 0.9111(11) 0.5287(8) 0.060(4) 1 0
O1 O2- 8 c 1.0433(12) 0.8642(11) 0.4577(8) 0.011(4) 1 0
O2 O2- 8 c 0.9589(12) 0.7868(11) 0.3697(8) 0.013(4) 1 0
O3 O2- 8 c 0.9547(13) 0.9459(11) 0.3690(8) 0.012(4) 1 0
O4 O2- 8 c 1.1543(13) 0.9501(11) 0.3756(8) 0.012(4) 1 0
O5 O2- 8 c 1.1517(12) 0.7764(11) 0.3777(8) 0.014(4) 1 0
O6 O2- 8 c 1.0732(13) 0.8583(11) 0.2848(8) 0.015(4) 1 0
O7 O2- 8 c 0.8482(12) 0.8292(10) 0.5735(8) 0.011(4) 1 0
O8 O2- 8 c 0.9498(12) 0.9582(11) 0.5468(8) 0.011(4) 1 0
H1 H1+ 8 c 0.986 1.0079 0.539 0.013 1 0
O9 O2- 8 c 0.8524(12) 0.8648(10) 0.4596(7) 0.011(4) 1 0
O10 O2- 8 c 0.9464(12) 0.7203(11) 0.4987(8) 0.011(4) 1 0
O11 O2- 8 c 1.0368(12) 0.8312(10) 0.5751(8) 0.011(4) 1 0
O12 O2- 8 c 0.7599(12) 0.9713(11) 0.5451(7) 0.012(4) 1 0
O13 O2- 8 c 0.7471(12) 0.9082(11) 0.6617(8) 0.014(4) 1 0
O14 O2- 8 c 0.9421(12) 0.9195(11) 0.6536(8) 0.011(4) 1 0
O15 O2- 8 c 0.7497(13) 0.9294(11) 0.3810(8) 0.012(4) 1 0
O16 O2- 8 c 0.8485(12) 1.0376(11) 0.4453(8) 0.012(4) 1 0
O17 O2- 8 c 0.6519(12) 0.8729(11) 0.4750(8) 0.013(4) 1 0
O18 O2- 8 c 0.6545(13) 1.0395(11) 0.4553(8) 0.014(4) 1 0
O19 O2- 8 c 0.7669(13) 0.7541(11) 0.3766(8) 0.013(4) 1 0
O20 O2- 8 c 0.8307(13) 0.8518(11) 0.2879(8) 0.015(4) 1 0
O21 O2- 8 c 0.8647(13) 1.0940(11) 0.3307(8) 0.015(4) 1 0
O22 O2- 8 c 0.9565(14) 0.7021(12) 0.2409(9) 0.023(5) 1 0
H2 H1+ 8 c 0.9301 0.6789 0.27 0.027 1 0
H3 H1+ 8 c 0.9547 0.6681 0.2124 0.027 1 0
O23 O2- 8 c 0.9526(13) 0.9927(12) 0.2180(9) 0.023(5) 1 0
H4 H1+ 8 c 0.9302 1.0171 0.2479 0.027 1 0
H5 H1+ 8 c 0.9528 1.0275 0.1899 0.027 1 0
O24 O2- 8 c 1.0629(15) 0.8222(13) 0.1420(9) 0.024(5) 1 0
H6 H1+ 8 c 1.0391 0.7813 0.1232 0.028 1 0
H7 H1+ 8 c 1.1225 0.8158 0.1423 0.028 1 0
O25 O2- 8 c 0.8407(15) 0.8343(13) 0.1348(9) 0.025(5) 1 0
H8 H1+ 8 c 0.7892 0.8609 0.13 0.03 1 0
H9 H1+ 8 c 0.8374 0.7883 0.1161 0.03 1 0
O26 O2- 8 c 0.5500(14) 0.8776(13) 0.6209(9) 0.023(5) 1 0
H10 H1+ 8 c 0.5296 0.8279 0.6255 0.028 1 0
H11 H1+ 8 c 0.6063 0.8801 0.6338 0.028 1 0
O27 O2- 8 c 0.5426(13) 1.0490(11) 0.5640(9) 0.018(4) 1 0
H12 H1+ 8 c 0.6009 1.0564 0.5714 0.021 1 0
H13 H1+ 8 c 0.5074 1.067 0.5913 0.021 1 0
O28 O2- 8 c 0.8608(13) 0.6070(11) 0.3367(8) 0.018(4) 1 0
H14 H1+ 8 c 0.8338 0.6539 0.3426 0.022 1 0
H15 H1+ 8 c 0.8613 0.5801 0.3687 0.022 1 0
N1 N3- 8 c 0.1932(17) 0.7218(15) 0.2482(10) 0.023(6) 1 0
H16 H1+ 8 c 0.1523 0.7651 0.2487 0.027 1 0
H17 H1+ 8 c 0.2118 0.7123 0.2851 0.027 1 0
H18 H1+ 8 c 0.2439 0.7362 0.2267 0.027 1 0
H19 H1+ 8 c 0.1635 0.676 0.2346 0.027 1 0
N2 N3- 8 c 0.2278(19) 0.8019(16) 0.5023(12) 0.029(6) 1 0
H20 H1+ 8 c 0.206 0.7946 0.4658 0.035 1 0
H21 H1+ 8 c 0.291 0.7956 0.5019 0.035 1 0
H22 H1+ 8 c 0.2015 0.7639 0.5264 0.035 1 0
H23 H1+ 8 c 0.2126 0.8535 0.5152 0.035 1 0
N3 N3- 8 c 0.798(2) 0.0188(18) 0.7596(13) 0.040(7) 1 0
H24 H1+ 8 c 0.8386 0.057 0.7452 0.049 1 0
H25 H1+ 8 c 0.783 0.0338 0.7963 0.049 1 0
H26 H1+ 8 c 0.825 -0.0323 0.7595 0.049 1 0
H27 H1+ 8 c 0.7455 0.017 0.7374 0.049 1 0
loop_
_atom_site_aniso_label
_atom_site_aniso_type_symbol
_atom_site_aniso_U_11
_atom_site_aniso_U_22
_atom_site_aniso_U_33
_atom_site_aniso_U_12
_atom_site_aniso_U_13
_atom_site_aniso_U_23
W1 W6+ 0.0118(5) 0.0172(5) 0.0036(6) 0.0015(4) 0.0008(4) -0.0041(4)
W2 W6+ 0.0114(5) 0.0109(5) 0.0024(6) -0.0002(4) -0.0010(4) -0.0002(4)
W3 W6+ 0.0129(6) 0.0174(5) 0.0016(6) -0.0022(4) 0.0020(4) 0.0001(4)
W4 W6+ 0.0113(6) 0.0165(5) 0.0039(6) 0.0004(4) 0.0000(4) -0.0015(4)
W5 W6+ 0.0128(6) 0.0157(5) 0.0041(6) -0.0005(4) -0.0011(4) -0.0034(4)
W6 W6+ 0.0120(5) 0.0111(5) 0.0019(6) -0.0002(4) -0.0011(4) 0.0004(4)
Na1 Na1+ 0.018(6) 0.023(6) 0.012(6) -0.001(4) 0.000(5) -0.002(4)
Na2 Na1+ 0.054(10) 0.060(10) 0.065(12) 0.003(8) 0.009(9) 0.000(9)
O1 O2- 0.013(9) 0.015(9) 0.005(9) 0.000(7) -0.001(7) -0.002(7)
O2 O2- 0.015(9) 0.018(9) 0.007(10) 0.000(7) 0.000(8) -0.002(7)
O3 O2- 0.014(10) 0.016(9) 0.006(9) 0.000(7) 0.000(8) -0.001(7)
O4 O2- 0.014(9) 0.017(9) 0.006(9) 0.000(7) 0.001(8) -0.001(7)
O5 O2- 0.015(9) 0.019(9) 0.009(9) 0.000(8) 0.001(8) -0.005(7)
O6 O2- 0.017(9) 0.020(9) 0.009(10) 0.000(8) 0.000(8) -0.002(8)
O7 O2- 0.013(9) 0.016(9) 0.005(9) -0.001(7) 0.000(8) -0.001(7)
O8 O2- 0.013(9) 0.016(9) 0.003(9) 0.000(7) 0.000(7) -0.002(7)
O9 O2- 0.013(9) 0.016(9) 0.004(9) 0.000(7) 0.000(8) -0.001(7)
O10 O2- 0.013(9) 0.015(9) 0.005(9) 0.000(7) -0.001(7) -0.002(7)
O11 O2- 0.013(9) 0.015(9) 0.004(9) -0.001(7) 0.000(8) -0.001(7)
O12 O2- 0.014(9) 0.017(9) 0.004(9) 0.000(7) 0.001(8) -0.001(7)
O13 O2- 0.015(9) 0.021(9) 0.008(10) -0.004(8) 0.002(8) -0.001(7)
O14 O2- 0.013(9) 0.015(9) 0.004(9) -0.001(7) 0.000(8) -0.001(7)
O15 O2- 0.014(9) 0.017(9) 0.005(9) 0.000(7) 0.000(8) -0.002(7)
O16 O2- 0.014(9) 0.016(9) 0.005(9) 0.000(7) -0.001(8) -0.001(7)
O17 O2- 0.015(10) 0.019(9) 0.007(9) 0.000(7) 0.000(8) -0.002(7)
O18 O2- 0.016(9) 0.020(9) 0.006(9) 0.001(7) 0.000(8) -0.001(7)
O19 O2- 0.015(10) 0.019(9) 0.006(9) -0.001(7) -0.002(8) -0.004(7)
O20 O2- 0.017(10) 0.019(9) 0.008(10) 0.000(7) -0.001(8) -0.002(7)
O21 O2- 0.018(10) 0.019(9) 0.009(10) 0.000(8) -0.002(8) -0.001(7)
O22 O2- 0.027(11) 0.028(11) 0.013(11) -0.002(8) 0.002(9) -0.002(9)
O23 O2- 0.028(11) 0.025(11) 0.016(11) -0.001(8) 0.001(9) -0.001(9)
O24 O2- 0.025(11) 0.029(11) 0.017(12) -0.001(9) 0.002(9) -0.005(9)
O25 O2- 0.027(12) 0.030(11) 0.018(12) -0.004(9) -0.001(10) -0.006(9)
O26 O2- 0.024(11) 0.028(11) 0.018(12) -0.002(9) -0.001(9) -0.003(9)
O27 O2- 0.019(10) 0.023(10) 0.011(11) -0.001(8) 0.001(8) -0.001(8)
O28 O2- 0.021(10) 0.023(10) 0.011(10) -0.001(8) 0.000(9) -0.003(8)
N1 N3- 0.028(14) 0.023(12) 0.018(14) 0.003(10) 0.001(12) 0.000(10)
N2 N3- 0.028(14) 0.031(14) 0.028(16) 0.000(11) -0.004(13) 0.006(11)
N3 N3- 0.046(18) 0.041(16) 0.035(18) 0.002(14) 0.003(15) 0.001(13)
#End of TTdata_421207-ICSD