
#(C) 2019 by FIZ Karlsruhe - Leibniz Institute for Information Infrastructure.  All rights reserved.
data_421441-ICSD
_database_code_ICSD 421441
_audit_creation_date 2015-08-01
_chemical_name_systematic 'Sodium triytterbium germanium heptasulfide'
_chemical_formula_structural 'Na Yb3 Ge S7'
_chemical_formula_sum 'Ge1 Na1 S7 Yb3'
_chemical_name_structure_type La3CuSiS7
_exptl_crystal_density_diffrn 6.01
_cell_measurement_temperature 293.
_publ_section_title

;
Alkali-metal thiogermanates: sodium channels and variations on the La3 Cu Si
S7 structure type
;
loop_
_citation_id
_citation_journal_full
_citation_year
_citation_journal_volume
_citation_page_first
_citation_page_last
_citation_journal_id_ASTM
primary 'Inorganic Chemistry' 2015 54 1055 1065 INOCAJ
loop_
_publ_author_name
'Choudhury, Amitava'
'Dorhout, Peter K.'
_cell_length_a 9.5421(6)
_cell_length_b 9.5421(6)
_cell_length_c 5.8833(7)
_cell_angle_alpha 90.
_cell_angle_beta 90.
_cell_angle_gamma 120.
_cell_volume 463.91
_cell_formula_units_Z 2
_symmetry_space_group_name_H-M 'P 63'
_symmetry_Int_Tables_number 173
_refine_ls_R_factor_all 0.0342
loop_
_symmetry_equiv_pos_site_id
_symmetry_equiv_pos_as_xyz
1 'x-y, x, z+1/2'
2 'y, -x+y, z+1/2'
3 '-x, -y, z+1/2'
4 '-x+y, -x, z'
5 '-y, x-y, z'
6 'x, y, z'
loop_
_atom_type_symbol
_atom_type_oxidation_number
Yb3+ 3
Na1+ 1
Ge4+ 4
S2- -2
loop_
_atom_site_label
_atom_site_type_symbol
_atom_site_symmetry_multiplicity
_atom_site_Wyckoff_symbol
_atom_site_fract_x
_atom_site_fract_y
_atom_site_fract_z
_atom_site_B_iso_or_equiv
_atom_site_occupancy
_atom_site_attached_hydrogens
Yb1 Yb3+ 6 c 0.14788(6) 0.36000(7) 0.7596(5) 0.0182(2) 1 0
Na1 Na1+ 2 a 0. 0. 0.436(2) 0.017(2) 1 0
Ge1 Ge4+ 2 b 0.3333 0.6667 0.3333 0.0114(6) 1 0
S1 S2- 2 b 0.3333 0.6667 0.9602(10) 0.0119(11) 1 0
S2 S2- 6 c 0.8554(5) 0.1073(4) 0.6910(7) 0.0181(7) 1 0
S3 S2- 6 c 0.4760(4) 0.9077(4) 0.4939(7) 0.0124(7) 1 0
loop_
_atom_site_aniso_label
_atom_site_aniso_type_symbol
_atom_site_aniso_U_11
_atom_site_aniso_U_22
_atom_site_aniso_U_33
_atom_site_aniso_U_12
_atom_site_aniso_U_13
_atom_site_aniso_U_23
Yb1 Yb3+ 0.0138(3) 0.0136(3) 0.0263(3) 0.0063(2) -0.0001(4) -0.0008(3)
Na1 Na1+ 0.011(3) 0.011(3) 0.029(5) 0.0055(14) 0. 0.
Ge1 Ge4+ 0.0127(8) 0.0127(8) 0.0087(9) 0.0063(4) 0. 0.
S1 S2- 0.0131(18) 0.0131(18) 0.010(2) 0.0065(9) 0. 0.
S2 S2- 0.0126(15) 0.0110(14) 0.0290(15) 0.0047(14) -0.0057(13) -0.0015(13)
S3 S2- 0.0107(19) 0.0097(15) 0.0128(13) 0.0022(13) 0.0006(13) 0.0005(13)
#End of TTdata_421441-ICSD