
#(C) 2019 by FIZ Karlsruhe - Leibniz Institute for Information Infrastructure.  All rights reserved.
data_421411-ICSD
_database_code_ICSD 421411
_audit_creation_date 2011-02-01
_audit_update_record 2014-08-01
_chemical_name_systematic 'Barium sodium scandium di(orthoborate)'
_chemical_formula_structural 'Ba Na Sc (B O3)2'
_chemical_formula_sum 'B2 Ba1 Na1 O6 Sc1'
_chemical_name_structure_type BaNaSc(BO3)2
_exptl_crystal_density_diffrn 3.91
_cell_measurement_temperature 293.
_publ_section_title

;
Synthesis and crystal structure of new layered Ba Na Sc (B O3)2 and Ba Na Y (B
O3)2 orthoborates
;
loop_
_citation_id
_citation_journal_full
_citation_year
_citation_journal_volume
_citation_page_first
_citation_page_last
_citation_journal_id_ASTM
primary 'Journal of Solid State Chemistry' 2010 183 1200 1204 JSSCBI
loop_
_publ_author_name
'Seryotkin, Y.V.'
'Bakakin, V.V.'
'Kokh, A.E.'
'Kononova, N.G.'
'Svetlyakova, T.N.'
'Kokh, K.A.'
'Drebushchak, T.N.'
_cell_length_a 5.23944(12)
_cell_length_b 5.23944(12)
_cell_length_c 34.5919(11)
_cell_angle_alpha 90.
_cell_angle_beta 90.
_cell_angle_gamma 120.
_cell_volume 822.38
_cell_formula_units_Z 6
_symmetry_space_group_name_H-M 'R -3 H'
_symmetry_Int_Tables_number 148
_refine_ls_R_factor_all 0.0204
loop_
_symmetry_equiv_pos_site_id
_symmetry_equiv_pos_as_xyz
1 'x-y, x, -z'
2 'y, -x+y, -z'
3 '-x, -y, -z'
4 '-x+y, -x, z'
5 '-y, x-y, z'
6 'x, y, z'
7 'x-y+2/3, x+1/3, -z+1/3'
8 'y+2/3, -x+y+1/3, -z+1/3'
9 '-x+2/3, -y+1/3, -z+1/3'
10 '-x+y+2/3, -x+1/3, z+1/3'
11 '-y+2/3, x-y+1/3, z+1/3'
12 'x+2/3, y+1/3, z+1/3'
13 'x-y+1/3, x+2/3, -z+2/3'
14 'y+1/3, -x+y+2/3, -z+2/3'
15 '-x+1/3, -y+2/3, -z+2/3'
16 '-x+y+1/3, -x+2/3, z+2/3'
17 '-y+1/3, x-y+2/3, z+2/3'
18 'x+1/3, y+2/3, z+2/3'
loop_
_atom_type_symbol
_atom_type_oxidation_number
Ba2+ 2
Sc3+ 3
B3+ 3
Na1+ 1
O2- -2
loop_
_atom_site_label
_atom_site_type_symbol
_atom_site_symmetry_multiplicity
_atom_site_Wyckoff_symbol
_atom_site_fract_x
_atom_site_fract_y
_atom_site_fract_z
_atom_site_B_iso_or_equiv
_atom_site_occupancy
_atom_site_attached_hydrogens
Ba1 Ba2+ 6 c 1. 0. 0.103197(4) 0.00916(4) 1 0
Sc1 Sc3+ 3 a 1. 0. 0. 0.00712(7) 1 0
Sc2 Sc3+ 3 b 0.3333 0.6667 0.1667 0.00758(7) 1 0
B1 B3+ 6 c 0.6667 0.3333 0.03739(7) 0.0078(3) 1 0
B2 B3+ 6 c 0.6667 0.3333 0.13060(7) 0.0080(3) 1 0
Na1 Na1+ 6 c 0.3333 0.6667 0.04628(7) 0.0306(4) 1 0
O1 O2- 18 f 0.3652(2) 0.2175(3) 0.03732(3) 0.01494(16) 1 0
O2 O2- 18 f 0.9687(2) 0.4841(2) 0.12992(4) 0.01514(17) 1 0
loop_
_atom_site_aniso_label
_atom_site_aniso_type_symbol
_atom_site_aniso_U_11
_atom_site_aniso_U_22
_atom_site_aniso_U_33
_atom_site_aniso_U_12
_atom_site_aniso_U_13
_atom_site_aniso_U_23
Ba1 Ba2+ 0.00859(4) 0.00859(4) 0.01029(5) 0.00430(2) 0. 0.
Sc1 Sc3+ 0.00623(9) 0.00623(9) 0.00890(16) 0.00311(4) 0. 0.
Sc2 Sc3+ 0.00435(9) 0.00435(9) 0.01405(18) 0.00217(4) 0. 0.
B1 B3+ 0.0074(4) 0.0074(4) 0.0086(7) 0.0037(2) 0. 0.
B2 B3+ 0.0073(4) 0.0073(4) 0.0096(7) 0.0036(2) 0. 0.
Na1 Na1+ 0.0115(3) 0.0115(3) 0.0689(13) 0.00574(14) 0. 0.
O1 O2- 0.0069(3) 0.0193(4) 0.0156(4) 0.0043(3) -0.0026(3) -0.0025(3)
O2 O2- 0.0070(3) 0.0097(3) 0.0281(5) 0.0037(2) -0.0051(3) -0.0023(3)
#End of TTdata_421411-ICSD