
#(C) 2019 by FIZ Karlsruhe - Leibniz Institute for Information Infrastructure.  All rights reserved.
data_421552-ICSD
_database_code_ICSD 421552
_audit_creation_date 2010-08-01
_chemical_name_systematic 'Sodium trinitratouranylate(VI)'
_chemical_formula_structural 'Na ((U O2) (N O3)3)'
_chemical_formula_sum 'N3 Na1 O11 U1'
_exptl_crystal_density_diffrn 2.65
_cell_measurement_temperature 293.
_publ_section_title 'Sodium trinitratouranylate(VI) Na [U O2 (N O3)3]'
loop_
_citation_id
_citation_journal_full
_citation_year
_citation_journal_volume
_citation_page_first
_citation_page_last
_citation_journal_id_ASTM
primary 'Zeitschrift fuer Anorganische und Allgemeine Chemie (1950) (DE)' 2010
636 1002 1005 ZAACAB
loop_
_publ_author_name
'Baecker, T.'
'Mudring, A.V.'
_cell_length_a 10.6324(14)
_cell_length_b 10.6324(14)
_cell_length_c 10.6324(14)
_cell_angle_alpha 90.
_cell_angle_beta 90.
_cell_angle_gamma 90.
_cell_volume 1201.97
_cell_formula_units_Z 4
_symmetry_space_group_name_H-M 'P 21 3'
_symmetry_Int_Tables_number 198
_refine_ls_R_factor_all 0.0379
loop_
_symmetry_equiv_pos_site_id
_symmetry_equiv_pos_as_xyz
1 '-z+1/2, -x, y+1/2'
2 '-y+1/2, -z, x+1/2'
3 '-x+1/2, -y, z+1/2'
4 '-z, x+1/2, -y+1/2'
5 '-y, z+1/2, -x+1/2'
6 '-x, y+1/2, -z+1/2'
7 'z+1/2, -x+1/2, -y'
8 'y+1/2, -z+1/2, -x'
9 'x+1/2, -y+1/2, -z'
10 'z, x, y'
11 'y, z, x'
12 'x, y, z'
loop_
_atom_type_symbol
_atom_type_oxidation_number
U6+ 6
Na1+ 1
N5+ 5
O2- -2
loop_
_atom_site_label
_atom_site_type_symbol
_atom_site_symmetry_multiplicity
_atom_site_Wyckoff_symbol
_atom_site_fract_x
_atom_site_fract_y
_atom_site_fract_z
_atom_site_B_iso_or_equiv
_atom_site_occupancy
_atom_site_attached_hydrogens
U1 U6+ 4 a -0.07121(3) -0.07121(3) -0.07121(3) 0.00761(18) 1 0
Na1 Na1+ 4 a -0.3268(3) -0.1732(3) 0.1732(3) 0.0091(12) 1 0
N1 N5+ 12 b -0.2778(8) 0.0944(8) -0.0228(9) 0.0219(18) 1 0
O1 O2- 12 b -0.3797(11) 0.1855(11) 0.0099(11) 0.051(3) 1 0
O2 O2- 12 b -0.2556(6) -0.0002(7) 0.0482(6) 0.0147(13) 1 0
O3 O2- 12 b -0.2076(7) 0.1112(6) -0.1162(6) 0.0134(13) 1 0
O4 O2- 4 a 0.0246(6) 0.0246(6) 0.0246(6) 0.011(2) 1 0
O5 O2- 4 a -0.1685(7) -0.1685(7) -0.1685(7) 0.016(2) 1 0
loop_
_atom_site_aniso_label
_atom_site_aniso_type_symbol
_atom_site_aniso_U_11
_atom_site_aniso_U_22
_atom_site_aniso_U_33
_atom_site_aniso_U_12
_atom_site_aniso_U_13
_atom_site_aniso_U_23
U1 U6+ 0.00761(18) 0.00761(18) 0.00761(18) 0.00022(11) 0.00022(11) 0.00022(11)
Na1 Na1+ 0.0091(12) 0.0091(12) 0.0091(12) 0.0000(13) 0.0000(13) 0.0000(13)
N1 N5+ 0.0091(12) 0.0091(12) 0.0091(12) 0.0000(13) 0.0000(13) 0.0000(13)
O1 O2- 0.049(6) 0.045(6) 0.058(7) 0.020(5) 0.017(5) 0.010(5)
O2 O2- 0.015(3) 0.014(3) 0.015(3) 0.003(2) 0.000(2) 0.003(2)
O3 O2- 0.017(3) 0.012(3) 0.011(3) 0.007(3) 0.003(3) 0.004(2)
O4 O2- 0.011(2) 0.011(2) 0.011(2) -0.004(2) -0.004(2) -0.004(2)
O5 O2- 0.016(2) 0.016(2) 0.016(2) 0.001(3) 0.001(3) 0.001(3)
#End of TTdata_421552-ICSD