
#(C) 2019 by FIZ Karlsruhe - Leibniz Institute for Information Infrastructure.  All rights reserved.
data_421558-ICSD
_database_code_ICSD 421558
_audit_creation_date 2011-02-01
_chemical_name_systematic 'Disodium oxonitridononachlorotetracerate(III)'
_chemical_formula_structural 'Na1.94 (((O1.12 N0.88) Ce4) Cl9)'
_chemical_formula_sum 'Ce4 Cl9 N0.88 Na1.94 O1.12'
_chemical_name_structure_type Na2Pr4Cl9O2
_exptl_crystal_density_diffrn 3.78
_cell_measurement_temperature 293.
_publ_section_title

;
A new example of the structure type A2 [{Z2 R4} X9]: Synthesis and crystal
structure of Na2 [{(O N) Ce4} Cl9]
;
loop_
_citation_id
_citation_journal_full
_citation_year
_citation_journal_volume
_citation_page_first
_citation_page_last
_citation_journal_id_ASTM
primary 'Zeitschrift fuer Anorganische und Allgemeine Chemie (1950) (DE)' 2010
636 1169 1171 ZAACAB
loop_
_publ_author_name
'Schurz, C.M.'
'Meyer, M.'
'Meyer, G.'
'Schleid, T.'
_cell_length_a 8.1321(6)
_cell_length_b 11.4613(9)
_cell_length_c 9.4286(7)
_cell_angle_alpha 90.
_cell_angle_beta 107.504(5)
_cell_angle_gamma 90.
_cell_volume 838.1
_cell_formula_units_Z 2
_symmetry_space_group_name_H-M 'P 1 21/m 1'
_symmetry_Int_Tables_number 11
_refine_ls_R_factor_all 0.0252
loop_
_symmetry_equiv_pos_site_id
_symmetry_equiv_pos_as_xyz
1 'x, -y+1/2, z'
2 '-x, -y, -z'
3 '-x, y+1/2, -z'
4 'x, y, z'
loop_
_atom_type_symbol
_atom_type_oxidation_number
Na1+ 1
Ce3+ 3
O2- -2
N3- -3
Cl1- -1
loop_
_atom_site_label
_atom_site_type_symbol
_atom_site_symmetry_multiplicity
_atom_site_Wyckoff_symbol
_atom_site_fract_x
_atom_site_fract_y
_atom_site_fract_z
_atom_site_B_iso_or_equiv
_atom_site_occupancy
_atom_site_attached_hydrogens
Na1 Na1+ 4 f 0.2277(4) 0.9885(4) 0.4285(3) 0.0535(13) 0.970(12) 0
Ce1 Ce3+ 2 e 0.59441(4) 0.25 0.82845(4) 0.00982(10) 1 0
Ce2 Ce3+ 2 e 0.61698(4) 0.25 0.21976(4) 0.01095(10) 1 0
Ce3 Ce3+ 4 f 0.27813(3) 0.04458(2) 0.95034(3) 0.01365(9) 1 0
O1 O2- 4 f 0.5613(4) 0.1243(3) 0.0150(4) 0.0119(9) 0.56(7) 0
N1 N3- 4 f 0.5613(4) 0.1243(3) 0.0150(4) 0.0119(9) 0.44(7) 0
Cl1 Cl1- 2 e 0.2508(2) 0.25 0.14147(19) 0.0206(3) 1 0
Cl2 Cl1- 2 e 0.2245(2) 0.25 0.74063(19) 0.0201(3) 1 0
Cl3 Cl1- 2 e 0.6436(3) 0.25 0.5334(2) 0.0362(4) 1 0
Cl4 Cl1- 4 f 0.89376(16) 0.40132(12) 0.87693(14) 0.0221(3) 1 0
Cl5 Cl1- 4 f 0.5087(2) 0.99701(13) 0.30328(15) 0.0325(3) 1 0
Cl6 Cl1- 4 f 0.91040(17) 0.09043(13) 0.31693(15) 0.0299(3) 1 0
loop_
_atom_site_aniso_label
_atom_site_aniso_type_symbol
_atom_site_aniso_U_11
_atom_site_aniso_U_22
_atom_site_aniso_U_33
_atom_site_aniso_U_12
_atom_site_aniso_U_13
_atom_site_aniso_U_23
Na1 Na1+ 0.0387(18) 0.087(3) 0.0305(15) 0.0326(17) 0.0033(12) 0.0004(15)
Ce1 Ce3+ 0.01156(17) 0.00980(17) 0.00921(16) 0. 0.00481(12) 0.
Ce2 Ce3+ 0.01327(17) 0.01130(18) 0.00836(16) 0. 0.00339(12) 0.
Ce3 Ce3+ 0.00991(13) 0.00987(14) 0.02132(14) 0.00148(8) 0.00492(10) 0.00159(9)
O1 O2- 0.0131(17) 0.0108(18) 0.0126(17) 0.0004(12) 0.0051(12) 0.0003(12)
N1 N3- 0.0387(18) 0.087(3) 0.0305(15) 0.0326(17) 0.0033(12) 0.0004(15)
Cl1 Cl1- 0.0162(7) 0.0239(8) 0.0240(8) 0. 0.0093(6) 0.
Cl2 Cl1- 0.0158(7) 0.0212(8) 0.0220(8) 0. 0.0038(6) 0.
Cl3 Cl1- 0.0756(12) 0.0240(9) 0.0158(8) 0. 0.0240(8) 0.
Cl4 Cl1- 0.0155(5) 0.0231(6) 0.0299(6) -0.0064(4) 0.0101(4) -0.0085(5)
Cl5 Cl1- 0.0508(8) 0.0277(7) 0.0212(6) -0.0158(6) 0.0142(6) -0.0052(5)
Cl6 Cl1- 0.0216(6) 0.0329(7) 0.0299(7) 0.0099(5) 0.0000(5) -0.0069(6)
#End of TTdata_421558-ICSD