
#(C) 2019 by FIZ Karlsruhe - Leibniz Institute for Information Infrastructure.  All rights reserved.
data_421690-ICSD
_database_code_ICSD 421690
_audit_creation_date 2011-02-01
_audit_update_record 2013-08-01
_chemical_name_systematic 'Disodium dicobalt tris(selenate(IV))'
_chemical_formula_structural 'Na2 Co2 (Se O3)3'
_chemical_formula_sum 'Co2 Na2 O9 Se3'
_chemical_name_structure_type Na2Co2Se3O9
_exptl_crystal_density_diffrn 4.19
_cell_measurement_temperature 293.
_publ_section_title

;
Syntheses, crystal structures and properties of three new metal selenites Na2
Co2 (Se O3)3, Na2 Co1.67 Ni0.33 (Se O3)3, and Na2 Co2 (Se O3)3
;
loop_
_citation_id
_citation_journal_full
_citation_year
_citation_journal_volume
_citation_page_first
_citation_page_last
_citation_journal_id_ASTM
primary 'Journal of Solid State Chemistry' 2010 183 1955 1961 JSSCBI
loop_
_publ_author_name
'Yuan Xiaoqing'
'Feng Mei Ling'
'Li Jian Rong'
'Huang Xiao Ying'
_cell_length_a 7.551(5)
_cell_length_b 11.147(8)
_cell_length_c 10.270(8)
_cell_angle_alpha 90.
_cell_angle_beta 90.
_cell_angle_gamma 90.
_cell_volume 864.44
_cell_formula_units_Z 4
_symmetry_space_group_name_H-M 'C m c m'
_symmetry_Int_Tables_number 63
_refine_ls_R_factor_all 0.03
loop_
_symmetry_equiv_pos_site_id
_symmetry_equiv_pos_as_xyz
1 '-x, y, -z+1/2'
2 '-x, -y, z+1/2'
3 '-x, y, z'
4 '-x, -y, -z'
5 'x, -y, z+1/2'
6 'x, y, -z+1/2'
7 'x, -y, -z'
8 'x, y, z'
9 '-x+1/2, y+1/2, -z+1/2'
10 '-x+1/2, -y+1/2, z+1/2'
11 '-x+1/2, y+1/2, z'
12 '-x+1/2, -y+1/2, -z'
13 'x+1/2, -y+1/2, z+1/2'
14 'x+1/2, y+1/2, -z+1/2'
15 'x+1/2, -y+1/2, -z'
16 'x+1/2, y+1/2, z'
loop_
_atom_type_symbol
_atom_type_oxidation_number
Se4+ 4
Co2+ 2
O2- -2
Na1+ 1
loop_
_atom_site_label
_atom_site_type_symbol
_atom_site_symmetry_multiplicity
_atom_site_Wyckoff_symbol
_atom_site_fract_x
_atom_site_fract_y
_atom_site_fract_z
_atom_site_B_iso_or_equiv
_atom_site_occupancy
_atom_site_attached_hydrogens
Se1 Se4+ 8 f 0. 0.23461(7) 0.52988(8) 0.0122(3) 1 0
Se2 Se4+ 8 f 0.5 -0.01549(14) 0.80012(16) 0.0121(4) 0.5 0
Co1 Co2+ 8 g 0.19344(15) 0.24303(9) 0.25 0.0109(3) 1 0
O1 O2- 8 f 0. 0.1638(5) 0.3813(6) 0.0123(11) 1 0
O2 O2- 16 h 0.1714(6) 0.1663(4) 0.6050(4) 0.0154(9) 1 0
O3 O2- 8 f 0.5 0.1189(9) 0.7230(11) 0.013(4) 0.5 0
O4 O2- 16 h 0.6736(11) -0.0812(7) 0.7238(11) 0.020(4) 0.5 0
Na1 Na1+ 4 c 0. -0.0211(5) 0.25 0.0280(13) 1 0
Na2 Na1+ 8 e 0.2697(12) 0. 0.5 0.0316(19) 0.5 0
loop_
_atom_site_aniso_label
_atom_site_aniso_type_symbol
_atom_site_aniso_U_11
_atom_site_aniso_U_22
_atom_site_aniso_U_33
_atom_site_aniso_U_12
_atom_site_aniso_U_13
_atom_site_aniso_U_23
Se1 Se4+ 0.0163(5) 0.0113(4) 0.0090(5) 0. 0. -0.0008(3)
Se2 Se4+ 0.0130(7) 0.0098(7) 0.0136(7) 0. 0. 0.0015(6)
Co1 Co2+ 0.0081(6) 0.0117(5) 0.0130(6) 0.0002(4) 0. 0.
O1 O2- 0.010(3) 0.016(3) 0.010(3) 0. 0. -0.005(2)
O2 O2- 0.0116(19) 0.0190(19) 0.016(2) 0.0010(16) -0.0027(16) -0.0024(16)
O3 O2- 0.011(5) 0.011(4) 0.017(12) 0. 0. 0.008(4)
O4 O2- 0.013(3) 0.016(3) 0.030(11) 0.009(3) 0.005(4) 0.000(3)
Na1 Na1+ 0.029(3) 0.014(2) 0.042(3) 0. 0. 0.
Na2 Na1+ 0.038(5) 0.023(4) 0.034(5) 0. 0. -0.011(3)
#End of TTdata_421690-ICSD