
#(C) 2019 by FIZ Karlsruhe - Leibniz Institute for Information Infrastructure.  All rights reserved.
data_421762-ICSD
_database_code_ICSD 421762
_audit_creation_date 2011-02-01
_chemical_name_systematic
'Sodium potassium manganese arsenate (0.5/0.65/3.43/3)'
_chemical_formula_structural 'K0.65 Na0.50 Mn3.43 (As O4)3'
_chemical_formula_sum 'As3 K0.65 Mn3.43 Na0.5 O12'
_exptl_crystal_density_diffrn 4.23
_cell_measurement_temperature 298.
_publ_section_title 'Sodium potassium manganese arsenate'
loop_
_citation_id
_citation_journal_full
_citation_year
_citation_journal_volume
_citation_page_first
_citation_page_last
_citation_journal_id_ASTM
primary 'Private Communication' 2010 5 1 1 PRICO6
loop_
_publ_author_name
'Frigui, W.'
_cell_length_a 6.856(3)
_cell_length_b 13.070(3)
_cell_length_c 11.370(2)
_cell_angle_alpha 90
_cell_angle_beta 98.67(3)
_cell_angle_gamma 90
_cell_volume 1007.2
_cell_formula_units_Z 4
_symmetry_space_group_name_H-M 'P 1 21/c 1'
_symmetry_Int_Tables_number 14
_refine_ls_R_factor_all 0.0338
loop_
_symmetry_equiv_pos_site_id
_symmetry_equiv_pos_as_xyz
1 'x, -y+1/2, z+1/2'
2 '-x, -y, -z'
3 '-x, y+1/2, -z+1/2'
4 'x, y, z'
loop_
_atom_type_symbol
_atom_type_oxidation_number
As5+ 5
Mn2+ 2.29
O2- -2
Na1+ 1
K1+ 1
loop_
_atom_site_label
_atom_site_type_symbol
_atom_site_symmetry_multiplicity
_atom_site_Wyckoff_symbol
_atom_site_fract_x
_atom_site_fract_y
_atom_site_fract_z
_atom_site_B_iso_or_equiv
_atom_site_occupancy
_atom_site_attached_hydrogens
As1 As5+ 4 e 0.58727(10) 0.11778(5) 0.23255(6) 0.00808(18) 1 0
As2 As5+ 4 e 0.12249(10) -0.10368(5) 0.23699(6) 0.01036(18) 1 0
As3 As5+ 4 e 0.23203(10) 0.28856(5) -0.00894(6) 0.00866(18) 1 0
Mn1 Mn2+ 4 e 0.59423(15) -0.14807(7) 0.22722(9) 0.0100(2) 1 0
Mn2 Mn2+ 4 e 0.26864(15) -0.26534(8) 0.00223(9) 0.0111(2) 1 0
Mn3 Mn2+ 2 d 0.5 0 0.5 0.0136(5) 0.854(5) 0
Mn4 Mn2+ 4 e 0.07480(15) 0.16523(7) 0.21337(8) 0.0096(2) 1 0
O1 O2- 4 e 0.5433(7) 0.0033(3) 0.1649(4) 0.0155(10) 1 0
O2 O2- 4 e 0.7623(7) 0.1752(4) 0.1641(4) 0.0121(9) 1 0
O3 O2- 4 e 0.6521(7) 0.1024(3) 0.3822(4) 0.0148(10) 1 0
O4 O2- 4 e 0.3832(7) 0.1920(3) 0.2113(4) 0.0112(9) 1 0
O5 O2- 4 e -0.0867(7) -0.1748(4) 0.2325(4) 0.0204(11) 1 0
O6 O2- 4 e 0.2258(8) -0.0906(4) 0.3816(4) 0.0179(11) 1 0
O7 O2- 4 e 0.0576(8) 0.0100(4) 0.1677(4) 0.0225(12) 1 0
O8 O2- 4 e 0.2792(7) -0.1634(3) 0.1573(4) 0.0127(10) 1 0
O9 O2- 4 e 0.4109(7) 0.2119(3) -0.0451(4) 0.0113(9) 1 0
O10 O2- 4 e 0.1058(8) 0.3640(4) -0.1163(5) 0.0250(13) 1 0
O11 O2- 4 e 0.3391(7) 0.3821(3) 0.0831(4) 0.0149(10) 1 0
O12 O2- 4 e 0.0516(7) 0.2173(4) 0.0408(4) 0.0154(10) 1 0
Na1 Na1+ 2 c 0 0.5 0 0.0331(12) 1 0
K1 K1+ 4 e 0.7508(3) -0.0158(2) 0.00363(19) 0.0178(7) 0.648(5) 0
loop_
_atom_site_aniso_label
_atom_site_aniso_type_symbol
_atom_site_aniso_U_11
_atom_site_aniso_U_22
_atom_site_aniso_U_33
_atom_site_aniso_U_12
_atom_site_aniso_U_13
_atom_site_aniso_U_23
As1 As5+ 0.0112(3) 0.0069(3) 0.0066(3) -0.0001(2) 0.0028(3) 0.0002(2)
As2 As5+ 0.0103(3) 0.0139(3) 0.0070(3) 0.0022(3) 0.0018(3) -0.0008(2)
As3 As5+ 0.0101(3) 0.0080(3) 0.0085(3) -0.0005(3) 0.0033(3) -0.0014(2)
Mn1 Mn2+ 0.0123(5) 0.0098(4) 0.0081(5) 0.0010(4) 0.0022(4) 0.0005(4)
Mn2 Mn2+ 0.0143(5) 0.0105(5) 0.0081(5) 0.0006(4) 0.0007(4) 0.0003(4)
Mn3 Mn2+ 0.0222(10) 0.0057(8) 0.0165(9) 0.0034(7) 0.0148(8) 0.0025(6)
Mn4 Mn2+ 0.0120(5) 0.0103(5) 0.0064(4) 0.0002(4) 0.0008(4) 0.0000(4)
O1 O2- 0.020(2) 0.012(2) 0.013(2) -0.001(2) -0.001(2) -0.0033(18)
O2 O2- 0.012(2) 0.017(2) 0.009(2) -0.002(2) 0.0049(19) 0.0016(18)
O3 O2- 0.025(3) 0.012(2) 0.006(2) -0.004(2) 0.000(2) 0.0012(17)
O4 O2- 0.012(2) 0.009(2) 0.011(2) 0.0014(18) -0.0013(19) 0.0003(17)
O5 O2- 0.011(2) 0.038(3) 0.012(2) -0.001(2) 0.000(2) -0.004(2)
O6 O2- 0.027(3) 0.016(2) 0.009(2) 0.004(2) -0.002(2) -0.0012(19)
O7 O2- 0.028(3) 0.024(3) 0.014(2) 0.009(2) -0.001(2) 0.003(2)
O8 O2- 0.015(2) 0.015(2) 0.009(2) 0.000(2) 0.0052(19) -0.0048(18)
O9 O2- 0.014(2) 0.012(2) 0.008(2) 0.0013(19) 0.0036(19) -0.0054(18)
O10 O2- 0.030(3) 0.019(3) 0.021(3) 0.011(2) -0.012(3) -0.006(2)
O11 O2- 0.023(3) 0.010(2) 0.013(2) -0.002(2) 0.007(2) -0.0015(18)
O12 O2- 0.013(2) 0.022(2) 0.012(2) -0.005(2) 0.006(2) -0.003(2)
Na1 Na1+ 0.057(3) 0.0091(18) 0.044(3) 0.008(2) 0.045(3) 0.0043(19)
K1 K1+ 0.0139(11) 0.0294(14) 0.0109(12) -0.0014(10) 0.0040(10) 0.0007(10)
#End of TTdata_421762-ICSD