
#(C) 2019 by FIZ Karlsruhe - Leibniz Institute for Information Infrastructure.  All rights reserved.
data_422185-ICSD
_database_code_ICSD 422185
_audit_creation_date 2011-08-01
_chemical_name_systematic 'Tetrasodium thorium tetrakis(tungstate)'
_chemical_formula_structural 'Na4 Th (W O4)4'
_chemical_formula_sum 'Na4 O16 Th1 W4'
_chemical_name_structure_type K4Th(MoO4)4
_exptl_crystal_density_diffrn 5.65
_cell_measurement_temperature 100.
_publ_section_title

;
Syntheses and single-crystal structures of Cs Th (Mo O4)2 Cl and Na4 Th (W
O4)4
;
loop_
_citation_id
_citation_journal_full
_citation_year
_citation_journal_volume
_citation_page_first
_citation_page_last
_citation_journal_id_ASTM
primary 'Journal of Solid State Chemistry' 2011 184 337 342 JSSCBI
loop_
_publ_author_name
'Jin Gengbang'
'Soderholm, L.'
_cell_length_a 11.4366(12)
_cell_length_b 11.4366(12)
_cell_length_c 11.833(2)
_cell_angle_alpha 90.
_cell_angle_beta 90.
_cell_angle_gamma 90.
_cell_volume 1547.71
_cell_formula_units_Z 4
_symmetry_space_group_name_H-M 'I 41/a Z'
_symmetry_Int_Tables_number 88
_refine_ls_R_factor_all 0.0302
loop_
_symmetry_equiv_pos_site_id
_symmetry_equiv_pos_as_xyz
1 '-y+3/4, x+3/4, -z+3/4'
2 'y+1/4, -x+3/4, -z+3/4'
3 'x, y+1/2, -z'
4 '-x, -y, -z'
5 'y+1/4, -x+1/4, z+1/4'
6 '-y+3/4, x+1/4, z+1/4'
7 '-x, -y+1/2, z'
8 'x, y, z'
9 '-y+1/4, x+1/4, -z+1/4'
10 'y+3/4, -x+1/4, -z+1/4'
11 'x+1/2, y, -z+1/2'
12 '-x+1/2, -y+1/2, -z+1/2'
13 'y+3/4, -x+3/4, z+3/4'
14 '-y+1/4, x+3/4, z+3/4'
15 '-x+1/2, -y, z+1/2'
16 'x+1/2, y+1/2, z+1/2'
loop_
_atom_type_symbol
_atom_type_oxidation_number
Na1+ 1
Th4+ 4
W6+ 6
O2- -2
loop_
_atom_site_label
_atom_site_type_symbol
_atom_site_symmetry_multiplicity
_atom_site_Wyckoff_symbol
_atom_site_fract_x
_atom_site_fract_y
_atom_site_fract_z
_atom_site_B_iso_or_equiv
_atom_site_occupancy
_atom_site_attached_hydrogens
Na1 Na1+ 16 f 0.3819(3) 0.0295(3) 0.1549(3) 0.0155(6) 1 0
Th1 Th4+ 4 a 0. 0.25 0.125 0.00917(11) 1 0
W1 W6+ 16 f 0.18120(2) 0.15829(2) 0.38127(2) 0.00978(9) 1 0
O1 O2- 16 f 0.0594(4) 0.1350(5) 0.2859(4) 0.0128(9) 1 0
O2 O2- 16 f 0.0879(4) 0.0722(4) 0.0582(4) 0.0118(9) 1 0
O3 O2- 16 f 0.1787(4) 0.0431(4) 0.4781(4) 0.0128(9) 1 0
O4 O2- 16 f 0.3427(4) 0.2089(4) 0.0485(5) 0.0142(10) 1 0
loop_
_atom_site_aniso_label
_atom_site_aniso_type_symbol
_atom_site_aniso_U_11
_atom_site_aniso_U_22
_atom_site_aniso_U_33
_atom_site_aniso_U_12
_atom_site_aniso_U_13
_atom_site_aniso_U_23
Na1 Na1+ 0.0147(14) 0.0141(14) 0.0176(14) -0.0027(12) -0.0037(11) -0.0001(11)
Th1 Th4+ 0.00671(14) 0.00671(14) 0.0141(2) 0. 0. 0.
W1 W6+ 0.00657(13) 0.00712(13) 0.01565(15) -0.00035(8) -0.00066(10) 0.00059(9)
O1 O2- 0.008(2) 0.012(2) 0.018(2) 0.0000(18) 0.0005(18) 0.001(2)
O2 O2- 0.011(2) 0.010(2) 0.014(2) 0.0030(18) 0.0013(18) 0.0026(18)
O3 O2- 0.012(2) 0.008(2) 0.019(2) -0.0017(19) 0.0017(19) 0.0019(18)
O4 O2- 0.011(2) 0.006(2) 0.026(3) -0.0009(19) -0.001(2) -0.0028(18)
#End of TTdata_422185-ICSD