
#(C) 2019 by FIZ Karlsruhe - Leibniz Institute for Information Infrastructure.  All rights reserved.
data_422219-ICSD
_database_code_ICSD 422219
_audit_creation_date 2011-08-01
_chemical_name_systematic 'Disodium gadolinium manganese oxide bis(arsenate(V))'
_chemical_formula_structural 'Na2 Gd Mn O (As O4)2'
_chemical_formula_sum 'As2 Gd1 Mn1 Na2 O9'
_exptl_crystal_density_diffrn 4.78
_cell_measurement_temperature 293.
_publ_section_title

;
Spaced heterometallic 3d-4f magnetic chains from the pseudo-one-dimensional
Na2 Ln Mn O (As O4)2 series: stepped magnetization in the Na2 Gd Mn O (As O4)2
ferromagnet
;
loop_
_citation_id
_citation_journal_full
_citation_year
_citation_journal_volume
_citation_page_first
_citation_page_last
_citation_journal_id_ASTM
primary 'Angewandte Chemie, International Edition' 2011 50 3780 3783 ACIEF5
loop_
_publ_author_name
'West, J.P.'
'Queen, W.L.'
'Hwu Shioujyh'
'Michaux, K.E.'
_cell_length_a 5.7627(12)
_cell_length_b 14.746(3)
_cell_length_c 9.0372(18)
_cell_angle_alpha 90.
_cell_angle_beta 92.66(3)
_cell_angle_gamma 90.
_cell_volume 767.12
_cell_formula_units_Z 4
_symmetry_space_group_name_H-M 'P 1 21/n 1'
_symmetry_Int_Tables_number 14
_refine_ls_R_factor_all 0.0365
loop_
_symmetry_equiv_pos_site_id
_symmetry_equiv_pos_as_xyz
1 '-x+1/2, y+1/2, -z+1/2'
2 '-x, -y, -z'
3 'x+1/2, -y+1/2, z+1/2'
4 'x, y, z'
loop_
_atom_type_symbol
_atom_type_oxidation_number
Na1+ 1
Gd3+ 3
Mn3+ 3
As5+ 5
O2- -2
loop_
_atom_site_label
_atom_site_type_symbol
_atom_site_symmetry_multiplicity
_atom_site_Wyckoff_symbol
_atom_site_fract_x
_atom_site_fract_y
_atom_site_fract_z
_atom_site_B_iso_or_equiv
_atom_site_occupancy
_atom_site_attached_hydrogens
Na1 Na1+ 4 e 0.2627(6) 0.6368(2) 0.6754(4) 0.0226(7) 1 0
Na2 Na1+ 4 e -0.2662(5) 0.2274(2) 0.6009(4) 0.0235(7) 1 0
Gd1 Gd3+ 4 e 0.20346(5) 0.38075(2) 0.71555(4) 0.00936(16) 1 0
Mn1 Mn3+ 2 c 0. 0.5 1. 0.0089(3) 1 0
Mn2 Mn3+ 2 b 0.5 0.5 1. 0.0091(3) 1 0
As1 As5+ 4 e 0.71969(11) 0.29653(5) 0.93173(7) 0.0089(2) 1 0
As2 As5+ 4 e -0.26082(12) 0.49812(4) 0.65269(8) 0.0092(2) 1 0
O1 O2- 4 e 0.2465(8) 0.4210(3) 0.9717(5) 0.0094(9) 1 0
O2 O2- 4 e 0.7439(8) 0.4098(3) 0.9758(6) 0.0116(9) 1 0
O3 O2- 4 e -0.5019(8) 0.5025(3) 0.7521(5) 0.0121(10) 1 0
O4 O2- 4 e 0.5035(8) 0.2788(3) 0.8032(6) 0.0143(10) 1 0
O5 O2- 4 e -0.2892(9) 0.5745(4) 0.5182(6) 0.0183(11) 1 0
O6 O2- 4 e -0.0173(8) 0.5232(3) 0.7635(5) 0.0127(10) 1 0
O7 O2- 4 e 0.9795(8) 0.2691(3) 0.8703(6) 0.0154(10) 1 0
O8 O2- 4 e 0.6492(9) 0.2542(3) 1.0937(6) 0.0145(10) 1 0
O9 O2- 4 e 0.1940(9) 0.6071(4) 0.4009(6) 0.0175(11) 1 0
loop_
_atom_site_aniso_label
_atom_site_aniso_type_symbol
_atom_site_aniso_U_11
_atom_site_aniso_U_22
_atom_site_aniso_U_33
_atom_site_aniso_U_12
_atom_site_aniso_U_13
_atom_site_aniso_U_23
Na1 Na1+ 0.0195(15) 0.0183(16) 0.0298(18) 0.0006(13) -0.0009(14) 0.0008(14)
Na2 Na1+ 0.0196(16) 0.0264(17) 0.0245(17) -0.0026(13) 0.0021(13) -0.0051(14)
Gd1 Gd3+ 0.0101(2) 0.0087(2) 0.0092(2) 0.00015(11) 0.00046(15) -0.00059(11)
Mn1 Mn3+ 0.0068(6) 0.0085(7) 0.0114(7) 0.0012(5) 0.0007(5) -0.0024(5)
Mn2 Mn3+ 0.0080(6) 0.0078(7) 0.0116(7) 0.0004(5) 0.0006(5) -0.0009(5)
As1 As5+ 0.0093(3) 0.0083(3) 0.0093(4) -0.0002(2) 0.0009(3) 0.0004(3)
As2 As5+ 0.0087(3) 0.0099(4) 0.0091(4) 0.0001(2) 0.0007(3) 0.0007(2)
O1 O2- 0.007(2) 0.010(2) 0.011(2) -0.0025(18) -0.0011(17) 0.0007(19)
O2 O2- 0.010(2) 0.012(2) 0.013(2) 0.0014(19) 0.0014(18) -0.002(2)
O3 O2- 0.006(2) 0.019(3) 0.011(2) -0.0009(17) 0.0007(18) 0.0009(19)
O4 O2- 0.014(2) 0.015(3) 0.014(2) -0.0001(19) -0.0031(19) -0.004(2)
O5 O2- 0.024(3) 0.022(3) 0.009(2) 0.004(2) -0.003(2) 0.006(2)
O6 O2- 0.007(2) 0.019(2) 0.012(2) -0.0015(19) 0.0032(18) 0.000(2)
O7 O2- 0.012(2) 0.015(2) 0.019(3) 0.0018(19) 0.003(2) -0.001(2)
O8 O2- 0.017(2) 0.012(2) 0.015(3) -0.0029(18) 0.004(2) 0.0049(19)
O9 O2- 0.015(3) 0.020(3) 0.017(3) 0.003(2) -0.005(2) -0.003(2)
#End of TTdata_422219-ICSD