
#(C) 2019 by FIZ Karlsruhe - Leibniz Institute for Information Infrastructure.  All rights reserved.
data_422475-ICSD
_database_code_ICSD 422475
_audit_creation_date 2013-08-01
_chemical_name_systematic 'Sodium dicobalt bis(molybdate(VI)) oxohydronium'
_chemical_formula_structural 'Na Co2 (Mo O4)2 (H3 O2)'
_chemical_formula_sum 'H3 Co2 Mo2 Na1 O10'
_exptl_crystal_density_diffrn 4.01
_cell_measurement_temperature 293.
_publ_section_title

;
Synthesis, structure and characterization of three metal molybdate hydrates:
Fe(H2O)2(MoO4)2*H3O, NaCo2(MoO4)2(H3O2) and Mn2(MoO4)3*2H3O
;
loop_
_citation_id
_citation_journal_full
_citation_year
_citation_journal_volume
_citation_page_first
_citation_page_last
_citation_journal_id_ASTM
primary 'Chemical Research in Chinese Universities' 2012 28 186 190 CRCUED
loop_
_publ_author_name
'Yu, Yang'
'Liu, Dan'
'Hu, Wei-wei'
'Li, Jia'
'Peng, Yu.'
'Zhou, Qi'
'Yang, Fen'
'Li, Guang-hua'
'Shi, Zhan'
'Feng, Shou-hua'
_cell_length_a 9.3920(19)
_cell_length_b 6.3436(13)
_cell_length_c 7.6473(15)
_cell_angle_alpha 90.
_cell_angle_beta 115.83(3)
_cell_angle_gamma 90.
_cell_volume 410.1
_cell_formula_units_Z 2
_symmetry_space_group_name_H-M 'C 1 2/m 1'
_symmetry_Int_Tables_number 12
_refine_ls_R_factor_all 0.0161
loop_
_symmetry_equiv_pos_site_id
_symmetry_equiv_pos_as_xyz
1 '-x, y, -z'
2 '-x, -y, -z'
3 'x, -y, z'
4 'x, y, z'
5 '-x+1/2, y+1/2, -z'
6 '-x+1/2, -y+1/2, -z'
7 'x+1/2, -y+1/2, z'
8 'x+1/2, y+1/2, z'
loop_
_atom_type_symbol
_atom_type_oxidation_number
Mo6+ 6
Co2+ 2
Na1+ 1
O2- -2
H1+ 1
loop_
_atom_site_label
_atom_site_type_symbol
_atom_site_symmetry_multiplicity
_atom_site_Wyckoff_symbol
_atom_site_fract_x
_atom_site_fract_y
_atom_site_fract_z
_atom_site_B_iso_or_equiv
_atom_site_occupancy
_atom_site_attached_hydrogens
Mo1 Mo6+ 4 i 1.08038(2) 0.5 1.28621(3) 0.00654(10) 1 0
Co1 Co2+ 4 e 0.75 0.25 1. 0.00773(12) 1 0
Na1 Na1+ 2 c 1.5 0.5 1.5 0.0166(4) 1 0
O1 O2- 8 j 0.96226(17) 0.2737(2) 1.2579(2) 0.0112(3) 1 0
O2 O2- 4 i 1.1699(2) 0.5 1.1178(3) 0.0114(4) 1 0
O3 O2- 4 i 1.2344(3) 0.5 1.5171(3) 0.0166(5) 1 0
O4 O2- 4 i 0.6489(2) 0.5 1.0834(3) 0.0097(4) 1 0
H1 H1+ 4 i 0.685(6) 0.5 1.184(7) 0.027(13) 1 0
H2 H1+ 2 a 0.5 0.5 1. 0.10(4) 1 0
loop_
_atom_site_aniso_label
_atom_site_aniso_type_symbol
_atom_site_aniso_U_11
_atom_site_aniso_U_22
_atom_site_aniso_U_33
_atom_site_aniso_U_12
_atom_site_aniso_U_13
_atom_site_aniso_U_23
Mo1 Mo6+ 0.00602(14) 0.00718(14) 0.00649(14) 0. 0.00279(10) 0.
Co1 Co2+ 0.00729(18) 0.0073(2) 0.0085(2) -0.00069(13) 0.00336(15) 0.00013(13)
Na1 Na1+ 0.0212(8) 0.0135(8) 0.0169(8) 0. 0.0101(7) 0.
O1 O2- 0.0102(6) 0.0107(7) 0.0112(7) -0.0012(6) 0.0033(6) 0.0006(6)
O2 O2- 0.0143(9) 0.0083(9) 0.0157(10) 0. 0.0104(8) 0.
O3 O2- 0.0132(10) 0.0208(12) 0.0115(10) 0. 0.0014(9) 0.
O4 O2- 0.0091(9) 0.0120(10) 0.0082(10) 0. 0.0040(8) 0.
#End of TTdata_422475-ICSD