
#(C) 2019 by FIZ Karlsruhe - Leibniz Institute for Information Infrastructure.  All rights reserved.
data_422479-ICSD
_database_code_ICSD 422479
_audit_creation_date 2012-08-01
_chemical_name_systematic
'Sodium hydrogen phosphate arsenate hydrate (2/1/0.52/0.48/7)'
_chemical_formula_structural 'Na2 H ((P0.52 As0.48) O4) (H2 O)7'
_chemical_formula_sum 'H15 As0.48 Na2 O11 P0.52'
_chemical_name_structure_type Na2HPO4(H2O)7
_exptl_crystal_density_diffrn 1.78
_cell_measurement_temperature 293.
_publ_section_title
'X-ray single-crystal analysis of Na2 H ((P0.52 As0.48) O4) * 7(H2 O)'
loop_
_citation_id
_citation_journal_full
_citation_year
_citation_journal_volume
_citation_page_first
_citation_page_last
_citation_journal_id_ASTM
primary 'Analytical Sciences: X-Ray Structure Analysis Online' 2011 27 29 30
XSAOAF
loop_
_publ_author_name
'Ennaceur, N.'
'Jarraya, K.'
'Ledoux-Rak, I.'
'Guiblin, N.'
'Mhiri, T.'
_cell_length_a 9.3250(7)
_cell_length_b 11.0063(8)
_cell_length_c 10.5602(7)
_cell_angle_alpha 90.
_cell_angle_beta 95.530(2)
_cell_angle_gamma 90.
_cell_volume 1078.79
_cell_formula_units_Z 4
_symmetry_space_group_name_H-M 'P 1 21/n 1'
_symmetry_Int_Tables_number 14
_refine_ls_R_factor_all 0.0518
loop_
_symmetry_equiv_pos_site_id
_symmetry_equiv_pos_as_xyz
1 '-x+1/2, y+1/2, -z+1/2'
2 '-x, -y, -z'
3 'x+1/2, -y+1/2, z+1/2'
4 'x, y, z'
loop_
_atom_type_symbol
_atom_type_oxidation_number
As5+ 5
P5+ 5
Na1+ 1
O2- -2
H1+ 1
loop_
_atom_site_label
_atom_site_type_symbol
_atom_site_symmetry_multiplicity
_atom_site_Wyckoff_symbol
_atom_site_fract_x
_atom_site_fract_y
_atom_site_fract_z
_atom_site_B_iso_or_equiv
_atom_site_occupancy
_atom_site_attached_hydrogens
As1 As5+ 4 e 0.10240(4) 0.26479(3) 0.39579(3) 0.01507(13) 0.479(3) 0
P1 P5+ 4 e 0.10240(4) 0.26479(3) 0.39579(3) 0.01507(13) 0.521(3) 0
Na1 Na1+ 4 e 0.13478(11) 0.39532(9) 0.97849(9) 0.0278(3) 1 0
Na2 Na1+ 4 e 0.14369(12) 0.10276(9) 0.97720(10) 0.0303(3) 1 0
O1 O2- 4 e -0.0200(2) 0.24617(18) 1.0561(2) 0.0311(5) 1 0
O2 O2- 4 e 0.0989(2) 0.24836(15) 0.54603(16) 0.0283(5) 1 0
O3 O2- 4 e 0.3029(2) -0.0131(2) 0.8688(2) 0.0304(5) 1 0
O4 O2- 4 e 0.0894(3) 0.5364(2) 1.1355(2) 0.0324(5) 1 0
O5 O2- 4 e 0.0623(3) 0.40937(19) 0.36215(19) 0.0320(5) 1 0
O6 O2- 4 e 0.26075(19) 0.25268(15) 0.35251(16) 0.0266(5) 1 0
O7 O2- 4 e 0.6933(3) 0.25022(18) 0.3147(2) 0.0299(5) 1 0
O8 O2- 4 e 0.8038(2) 0.24954(19) 0.5940(2) 0.0347(5) 1 0
O9 O2- 4 e -0.0123(2) 0.18034(17) 0.31609(16) 0.0287(5) 1 0
O10 O2- 4 e 0.9263(3) 0.0226(2) 0.8525(2) 0.0352(5) 1 0
O11 O2- 4 e 0.3179(2) 0.5055(2) 0.8898(2) 0.0325(5) 1 0
H1 H1+ 4 e 0.768(4) 0.236(3) 0.311(3) 0.042(12) 1 0
H2 H1+ 4 e 0.329(4) -0.078(4) 0.890(3) 0.059(13) 1 0
H3 H1+ 4 e 0.871(4) 0.073(3) 0.833(3) 0.039(11) 1 0
H4 H1+ 4 e 0.653(4) 0.259(3) 0.237(4) 0.077(14) 1 0
H5 H1+ 4 e -0.029(4) 0.232(3) 1.132(4) 0.082(15) 1 0
H6 H1+ 4 e 0.791(4) 0.248(3) 0.666(3) 0.040(10) 1 0
H7 H1+ 4 e 0.131(4) 0.591(3) 1.152(3) 0.048(12) 1 0
H8 H1+ 4 e 0.348(4) 0.564(3) 0.912(3) 0.051(12) 1 0
H9 H1+ 4 e 0.926(4) -0.018(4) 0.787(4) 0.078(15) 1 0
H10 H1+ 4 e -0.093(4) 0.238(3) 1.013(4) 0.052(12) 1 0
H11 H1+ 4 e 0.092(3) 0.501(3) 1.205(3) 0.046(10) 1 0
H12 H1+ 4 e 0.272(4) -0.012(3) 0.793(4) 0.071(14) 1 0
H13 H1+ 4 e -0.011(3) 0.429(3) 0.368(3) 0.035(11) 1 0
H14 H1+ 4 e 0.891(5) 0.249(4) 0.587(4) 0.092(17) 1 0
H15 H1+ 4 e 0.391(4) 0.453(4) 0.879(4) 0.078(14) 1 0
loop_
_atom_site_aniso_label
_atom_site_aniso_type_symbol
_atom_site_aniso_U_11
_atom_site_aniso_U_22
_atom_site_aniso_U_33
_atom_site_aniso_U_12
_atom_site_aniso_U_13
_atom_site_aniso_U_23
As1 As5+ 0.0151(2) 0.0161(2) 0.01385(17) 0.00024(16) 0.00063(12) 0.00130(15)
P1 P5+ 0.0151(2) 0.0161(2) 0.01385(17) 0.00024(16) 0.00063(12) 0.00130(15)
Na1 Na1+ 0.0298(7) 0.0239(6) 0.0300(6) -0.0002(4) 0.0052(5) -0.0008(4)
Na2 Na1+ 0.0329(7) 0.0247(6) 0.0344(6) -0.0025(5) 0.0097(5) -0.0015(4)
O1 O2- 0.0269(12) 0.0371(13) 0.0286(11) -0.0033(9) 0.0000(9) 0.0026(9)
O2 O2- 0.0329(11) 0.0293(11) 0.0224(9) 0.0007(8) 0.0011(8) 0.0007(7)
O3 O2- 0.0370(13) 0.0256(12) 0.0281(12) 0.0038(9) 0.0000(10) -0.0002(9)
O4 O2- 0.0415(14) 0.0279(13) 0.0277(12) -0.0046(10) 0.0028(10) 0.0012(9)
O5 O2- 0.0287(14) 0.0321(12) 0.0360(12) 0.0056(10) 0.0065(10) 0.0088(8)
O6 O2- 0.0230(10) 0.0294(11) 0.0278(9) 0.0015(8) 0.0037(7) -0.0015(8)
O7 O2- 0.0335(13) 0.0300(12) 0.0260(10) 0.0032(10) 0.0018(9) 0.0009(8)
O8 O2- 0.0297(13) 0.0489(15) 0.0256(11) 0.0000(10) 0.0031(9) 0.0002(9)
O9 O2- 0.0256(11) 0.0345(11) 0.0255(9) -0.0071(8) 0.0003(8) 0.0010(8)
O10 O2- 0.0358(14) 0.0368(13) 0.0329(13) 0.0050(11) 0.0025(10) 0.0009(10)
O11 O2- 0.0338(14) 0.0233(12) 0.0409(13) -0.0032(10) 0.0060(10) -0.0047(10)
#End of TTdata_422479-ICSD