
#(C) 2019 by FIZ Karlsruhe - Leibniz Institute for Information Infrastructure.  All rights reserved.
data_422409-ICSD
_database_code_ICSD 422409
_audit_creation_date 2011-08-01
_audit_update_record 2016-02-01
_chemical_name_systematic 'Sodium uranyl pyrophosphate (22/45/46)'
_chemical_formula_structural 'Na22 P46 U45 O342'
_chemical_formula_sum 'Na22 O342 P46 U45'
_exptl_crystal_density_diffrn 1.92
_cell_measurement_temperature 100.
_publ_section_title 'Low-symmetry uranyl pyrophosphate cage clusters'
loop_
_citation_id
_citation_journal_full
_citation_year
_citation_journal_volume
_citation_page_first
_citation_page_last
_citation_journal_id_ASTM
primary 'Chemistry - A European Journal' 2011 17 2571 2574 CEUJED
loop_
_publ_author_name
'Ling Jie'
'Qiu Jie'
'Szymanowski, J.E.S.'
'Burns, P.C.'
_cell_length_a 25.0144(15)
_cell_length_b 28.7369(17)
_cell_length_c 48.925(3)
_cell_angle_alpha 74.1420(10)
_cell_angle_beta 87.2840(10)
_cell_angle_gamma 67.8640(10)
_cell_volume 31275.99
_cell_formula_units_Z 2
_symmetry_space_group_name_H-M 'P -1'
_symmetry_Int_Tables_number 2
_refine_ls_R_factor_all 0.0524
loop_
_symmetry_equiv_pos_site_id
_symmetry_equiv_pos_as_xyz
1 '-x, -y, -z'
2 'x, y, z'
loop_
_atom_type_symbol
_atom_type_oxidation_number
U6+ 6
P5+ 5
Na1+ 1
O2- -2
O1- -1
O2- -2
O1- -1
O2- -2
O1- -1
O2- -2
O1- -1
O2- -2
O1- -1
O2- -2
O1- -1
O2- -2
O1- -1
O2- -2
O1- -1
O2- -2
O1- -1
O2- -2
O1- -1
O2- -2
O1- -1
O2- -2
O1- -1
O2- -2
O1- -1
O2- -2
O1- -1
O2- -2
O1- -1
O2- -2
O1- -1
O2- -2
O1- -1
O2- -2
O1- -1
O2- -2
O1- -1
O2- -2
O1- -1
O2- -2
O1- -1
O2- -2
O1- -1
O2- -2
O1- -1
O2- -2
O1- -1
O2- -2
O1- -1
O2- -2
O1- -1
O2- -2
O1- -1
O2- -2
O1- -1
O2- -2
O1- -1
O2- -2
O1- -1
O2- -2
O1- -1
O2- -2
O1- -1
O2- -2
O1- -1
O2- -2
O1- -1
O2- -2
O1- -1
O2- -2
O1- -1
O2- -2
O1- -1
O2- -2
O1- -1
O2- -2
O1- -1
O2- -2
O1- -1
O2- -2
O1- -1
O2- -2
O1- -1
O2- -2
O1- -1
O2- -2
O1- -1
O2- -2
O1- -1
O2- -2
O1- -1
O2- -2
O1- -1
O2- -2
O1- -1
O2- -2
O1- -1
O2- -2
O1- -1
O2- -2
O1- -1
O2- -2
O1- -1
O2- -2
O1- -1
O2- -2
O1- -1
O2- -2
O1- -1
O2- -2
O1- -1
O2- -2
O1- -1
O2- -2
O1- -1
O2- -2
O1- -1
O2- -2
O1- -1
O2- -2
loop_
_atom_site_label
_atom_site_type_symbol
_atom_site_symmetry_multiplicity
_atom_site_Wyckoff_symbol
_atom_site_fract_x
_atom_site_fract_y
_atom_site_fract_z
_atom_site_B_iso_or_equiv
_atom_site_occupancy
_atom_site_attached_hydrogens
U1 U6+ 2 i 0.50874(4) 0.27073(3) 0.331869(18) 0.0216(2) 1 0
U2 U6+ 2 i 0.09921(4) 0.33188(3) 0.474445(19) 0.0228(2) 1 0
U3 U6+ 2 i 0.48015(4) 0.16905(3) 0.405572(18) 0.0221(2) 1 0
U4 U6+ 2 i 0.26110(4) 0.20819(3) 0.480420(19) 0.0228(2) 1 0
U5 U6+ 2 i 0.02228(4) 0.22079(3) 0.498000(19) 0.0231(2) 1 0
U6 U6+ 2 i 0.18317(4) 0.09844(3) 0.505270(19) 0.0247(2) 1 0
U7 U6+ 2 i 0.58237(4) 0.14544(3) 0.296405(19) 0.0231(2) 1 0
U8 U6+ 2 i -0.19580(4) 0.31052(3) 0.267008(19) 0.0265(2) 1 0
U9 U6+ 2 i -0.16786(4) 0.28647(3) 0.409795(19) 0.0259(2) 1 0
U10 U6+ 2 i 0.33478(4) 0.49701(3) 0.264798(19) 0.0249(2) 1 0
U11 U6+ 2 i 0.39738(4) -0.07122(3) 0.381258(19) 0.0269(2) 1 0
U12 U6+ 2 i 0.45832(4) 0.20221(3) 0.183508(19) 0.0281(2) 1 0
U13 U6+ 2 i -0.29400(4) 0.45724(3) 0.278643(19) 0.0257(2) 1 0
U14 U6+ 2 i 0.55610(4) 0.04279(3) 0.371192(19) 0.0246(2) 1 0
U15 U6+ 2 i 0.25525(4) -0.05044(3) 0.432216(19) 0.0260(2) 1 0
U16 U6+ 2 i -0.09223(4) 0.21217(4) 0.34428(2) 0.0304(3) 1 0
U17 U6+ 2 i -0.06348(4) 0.64458(4) 0.36344(2) 0.0316(3) 1 0
U18 U6+ 2 i 0.11180(4) 0.57357(3) 0.39426(2) 0.0291(3) 1 0
U19 U6+ 2 i 0.28366(4) -0.00418(4) 0.30845(2) 0.0308(3) 1 0
U20 U6+ 2 i -0.11903(4) 0.73869(4) 0.01542(2) 0.0339(3) 1 0
U21 U6+ 2 i 0.35046(4) 0.35368(4) 0.14193(2) 0.0303(3) 1 0
U22 U6+ 2 i -0.44095(4) 0.65880(4) 0.17975(2) 0.0329(3) 1 0
U23 U6+ 2 i -0.13869(4) 0.53374(4) 0.39666(2) 0.0309(3) 1 0
U24 U6+ 2 i -0.26499(4) 0.44602(4) 0.36549(2) 0.0305(3) 1 0
U25 U6+ 2 i -0.28751(4) 0.91257(3) 0.19877(2) 0.0313(3) 1 0
U26 U6+ 2 i 0.29188(4) 0.54387(4) 0.17771(2) 0.0297(3) 1 0
U27 U6+ 2 i 0.22892(4) 0.61704(4) 0.30034(2) 0.0327(3) 1 0
U28 U6+ 2 i -0.06276(4) 0.92821(4) 0.21764(2) 0.0349(3) 1 0
U29 U6+ 2 i -0.16457(4) 0.85649(4) 0.26799(2) 0.0314(3) 1 0
U30 U6+ 2 i -0.12166(4) 0.51023(4) 0.05595(2) 0.0366(3) 1 0
U31 U6+ 2 i -0.45124(4) 0.81187(4) 0.06957(2) 0.0394(3) 1 0
U32 U6+ 2 i -0.43830(4) 0.80944(4) 0.15483(2) 0.0357(3) 1 0
U33 U6+ 2 i -0.01876(4) 0.80277(4) 0.04805(2) 0.0349(3) 1 0
U34 U6+ 2 i 0.16117(4) 0.75575(4) 0.22683(2) 0.0329(3) 1 0
U35 U6+ 2 i -0.16981(4) 0.34400(4) 0.14274(2) 0.0324(3) 1 0
U36 U6+ 2 i -0.45610(4) 0.66203(4) 0.09439(2) 0.0379(3) 1 0
U37 U6+ 2 i 0.14226(4) 0.01376(4) 0.35991(2) 0.0345(3) 1 0
U38 U6+ 2 i 0.15899(4) 0.69272(4) 0.15621(2) 0.0359(3) 1 0
U39 U6+ 2 i -0.26781(4) 0.47320(4) 0.07639(2) 0.0379(3) 1 0
U40 U6+ 2 i 0.31919(4) 0.15434(4) 0.19676(2) 0.0404(3) 1 0
U41 U6+ 2 i -0.18787(4) 0.99025(4) 0.14955(2) 0.0394(3) 1 0
U42 U6+ 2 i -0.16459(4) 0.94150(4) 0.03888(2) 0.0392(3) 1 0
U43 U6+ 2 i 0.20852(4) 0.30823(4) 0.15648(2) 0.0529(3) 1 0
U44 U6+ 2 i -0.26511(4) 0.87490(4) 0.00793(2) 0.0399(3) 1 0
U45 U6+ 2 i -0.02390(4) 0.38328(4) 0.12307(2) 0.0488(3) 1 0
P1 P5+ 2 i 0.4074(3) 0.4489(2) 0.14826(14) 0.0299(17) 1 0
P2 P5+ 2 i -0.0015(3) 0.0791(3) 0.38123(15) 0.0364(19) 1 0
P3 P5+ 2 i 0.2882(3) -0.0244(3) 0.49599(14) 0.0352(19) 1 0
P4 P5+ 2 i -0.4174(3) 0.5264(3) 0.09311(14) 0.0364(19) 1 0
P5 P5+ 2 i -0.4067(3) 0.5271(2) 0.22191(14) 0.0330(18) 1 0
P6 P5+ 2 i 0.1922(3) 0.6602(3) 0.36528(15) 0.044(2) 1 0
P7 P5+ 2 i 0.0813(3) 0.8979(3) 0.19377(16) 0.045(2) 1 0
P8 P5+ 2 i 0.1176(3) 0.7052(3) 0.08310(16) 0.052(2) 1 0
P9 P5+ 2 i 0.0080(3) 0.1015(3) 0.32097(15) 0.042(2) 1 0
P10 P5+ 2 i 0.2462(3) 0.0717(3) 0.23513(16) 0.046(2) 1 0
P11 P5+ 2 i -0.3915(3) 0.8406(3) 0.00145(16) 0.046(2) 1 0
P12 P5+ 2 i -0.3980(3) 0.9171(3) 0.15266(16) 0.047(2) 1 0
P13 P5+ 2 i 0.0815(3) 0.8672(3) 0.25385(16) 0.048(2) 1 0
P14 P5+ 2 i -0.3935(3) 0.5913(3) 0.04238(16) 0.050(2) 1 0
P15 P5+ 2 i 0.0785(4) 0.4248(4) 0.1529(2) 0.095(3) 1 0
P16 P5+ 2 i 0.0672(4) 0.3346(4) 0.1893(2) 0.091(3) 1 0
P17 P5+ 2 i -0.0176(3) 0.4586(2) 0.45383(13) 0.0262(17) 1 0
P18 P5+ 2 i 0.5389(3) -0.0693(2) 0.35910(14) 0.0252(17) 1 0
P19 P5+ 2 i 0.5166(3) -0.0614(2) 0.41503(13) 0.0259(17) 1 0
P20 P5+ 2 i 0.4775(3) 0.3949(2) 0.27841(13) 0.0255(17) 1 0
P21 P5+ 2 i 0.4035(3) 0.1314(2) 0.46548(13) 0.0232(16) 1 0
P22 P5+ 2 i -0.2860(3) 0.5775(3) 0.36852(15) 0.0379(19) 1 0
P23 P5+ 2 i 0.3784(3) 0.2412(2) 0.44874(13) 0.0222(16) 1 0
P24 P5+ 2 i 0.0951(3) 0.4610(2) 0.44079(14) 0.0273(17) 1 0
P25 P5+ 2 i 0.2568(3) 0.5507(3) 0.37726(15) 0.0384(19) 1 0
P26 P5+ 2 i -0.2627(3) 0.5036(3) 0.42300(15) 0.0364(19) 1 0
P27 P5+ 2 i 0.4170(3) 0.4042(2) 0.32856(13) 0.0227(16) 1 0
P28 P5+ 2 i 0.5730(3) 0.1035(2) 0.23471(13) 0.0258(17) 1 0
P29 P5+ 2 i -0.2568(3) 0.3094(2) 0.19961(13) 0.0266(17) 1 0
P30 P5+ 2 i -0.1311(3) 0.2941(2) 0.47957(14) 0.0282(17) 1 0
P31 P5+ 2 i -0.1285(3) 1.0149(3) 0.08121(16) 0.047(2) 1 0
P32 P5+ 2 i 0.0895(3) 0.8036(3) 0.09531(15) 0.0379(19) 1 0
P33 P5+ 2 i -0.4117(3) 0.9193(3) 0.02983(15) 0.042(2) 1 0
P34 P5+ 2 i 0.2993(3) 0.4935(3) 0.11697(15) 0.0372(19) 1 0
P35 P5+ 2 i -0.0929(3) 0.7838(2) 0.33533(14) 0.0328(18) 1 0
P36 P5+ 2 i -0.3905(3) 0.8502(3) 0.20912(15) 0.039(2) 1 0
P37 P5+ 2 i -0.0922(3) 0.1897(3) 0.47676(15) 0.0364(19) 1 0
P38 P5+ 2 i -0.1866(3) 0.7570(2) 0.32255(15) 0.0325(18) 1 0
P39 P5+ 2 i -0.1705(3) 0.6400(3) 0.00922(14) 0.0368(19) 1 0
P40 P5+ 2 i 0.1726(3) -0.0163(2) 0.49303(15) 0.0324(18) 1 0
P41 P5+ 2 i 0.5817(3) 0.2023(2) 0.21914(14) 0.0287(17) 1 0
P42 P5+ 2 i -0.1384(3) 0.2453(3) 0.21071(14) 0.0339(18) 1 0
P43 P5+ 2 i 0.3668(3) 0.0287(3) 0.24997(15) 0.0362(19) 1 0
P44 P5+ 2 i -0.2471(4) 1.0354(3) 0.07635(17) 0.059(2) 1 0
P45 P5+ 2 i -0.3911(3) 0.5922(2) 0.25279(14) 0.0302(18) 1 0
P46 P5+ 2 i -0.0509(3) 0.5989(3) 0.02694(14) 0.0360(19) 1 0
Na1 Na1+ 2 i 0.1970(4) 0.4495(3) 0.49223(19) 0.037(3) 1 0
Na2 Na1+ 2 i -0.0717(4) 0.4389(3) 0.52340(19) 0.039(3) 1 0
Na3 Na1+ 2 i 0.0630(4) 0.4458(3) 0.51133(18) 0.031(2) 1 0
Na4 Na1+ 2 i 0.1285(4) 0.2240(4) 0.43024(19) 0.040(3) 1 0
Na5 Na1+ 2 i 0.4506(4) 0.3180(3) 0.20121(19) 0.037(3) 1 0
Na6 Na1+ 2 i 0.3158(4) 0.2789(4) 0.2233(2) 0.045(3) 1 0
Na7 Na1+ 2 i 0.0593(4) 0.1214(4) 0.4616(2) 0.057(3) 1 0
Na8 Na1+ 2 i -0.1733(4) 0.4929(4) 0.1363(2) 0.047(3) 1 0
Na9 Na1+ 2 i -0.1200(4) 0.8278(4) 0.19231(19) 0.051(3) 1 0
Na10 Na1+ 2 i 0.2586(4) 0.0756(3) 0.36737(19) 0.044(3) 1 0
Na11 Na1+ 2 i 0.3627(4) 0.0044(4) 0.4328(2) 0.048(3) 1 0
Na12 Na1+ 2 i 0.3507(4) 0.4245(4) 0.3906(2) 0.047(3) 1 0
Na13 Na1+ 2 i -0.2973(4) 0.4473(4) 0.1501(2) 0.055(3) 1 0
Na14 Na1+ 2 i 0.0611(5) 0.6715(4) 0.2244(2) 0.068(3) 1 0
Na15 Na1+ 2 i -0.3256(4) 0.6924(4) 0.12600(19) 0.054(3) 1 0
Na16 Na1+ 2 i 0.0650(4) 0.6204(4) 0.3108(2) 0.062(3) 1 0
Na17 Na1+ 2 i -0.4246(5) 0.4825(4) 0.3308(3) 0.088(4) 1 0
Na18 Na1+ 2 i 0.2525(5) 0.3842(4) 0.3774(2) 0.072(4) 1 0
Na19 Na1+ 2 i -0.0366(5) 0.9130(4) 0.1459(2) 0.079(4) 1 0
Na20 Na1+ 2 i 0.1046(5) 0.7416(4) 0.2973(3) 0.079(4) 1 0
Na21 Na1+ 2 i 0.5045(4) 0.0602(4) 0.3007(2) 0.064(3) 1 0
Na22 Na1+ 2 i 0.4222(4) 0.1795(3) 0.32780(18) 0.032(2) 1 0
O1 O2- 2 i 0.4540(5) 0.2498(5) 0.3233(3) 0.015(4) 1 0
O2 O2- 2 i 0.5240(5) 0.1634(5) 0.4350(3) 0.019(4) 1 0
O3 O2- 2 i 0.2417(5) 0.5587(5) 0.3464(3) 0.015(4) 1 0
O4 O1- 2 i 0.3576(6) -0.0880(5) 0.4271(3) 0.029(4) 1 0
O5 O2- 2 i -0.3590(5) 0.4556(5) 0.2962(3) 0.022(4) 1 0
O6 O2- 2 i -0.2941(6) 0.5620(5) 0.4027(3) 0.028(4) 1 0
O7 O2- 2 i 0.4896(5) 0.0867(5) 0.3513(3) 0.022(4) 1 0
O8 O1- 2 i -0.0598(6) 0.5583(5) 0.3799(3) 0.037(4) 1 0
O9 O1- 2 i 0.1844(5) 0.2650(5) 0.4977(3) 0.020(4) 1 0
O10 O1- 2 i 0.6019(5) 0.0578(5) 0.3265(3) 0.020(4) 1 0
O11 O2- 2 i 0.3130(6) 0.2542(5) 0.4487(3) 0.022(4) 1 0
O12 O2- 2 i -0.3930(6) 0.8082(5) 0.1959(3) 0.032(4) 1 0
O13 O1- 2 i -0.1485(6) 0.2904(5) 0.3119(3) 0.029(4) 1 0
O14 O1- 2 i 0.5622(5) 0.1034(5) 0.3939(3) 0.018(4) 1 0
O15 O1- 2 i 0.2156(5) 0.1604(5) 0.5130(3) 0.015(4) 1 0
O16 O1- 2 i -0.2430(6) 0.9208(5) 0.2397(3) 0.034(4) 1 0
O17 O1- 2 i 0.2044(6) 0.2995(5) 0.4758(3) 0.023(4) 1 0
O18 O1- 2 i -0.2552(6) 0.3662(5) 0.2928(3) 0.023(4) 1 0
O19 O2- 2 i -0.3753(6) 0.6581(5) 0.1622(3) 0.026(4) 1 0
O20 O2- 2 i 0.5667(6) 0.2019(5) 0.2491(3) 0.027(4) 1 0
O21 O2- 2 i -0.1466(6) 0.6994(5) 0.3303(3) 0.033(4) 1 0
O22 O2- 2 i 0.4391(6) 0.0855(5) 0.4904(3) 0.024(4) 1 0
O23 O1- 2 i 0.5365(6) 0.2074(5) 0.3745(3) 0.023(4) 1 0
O24 O2- 2 i 0.4087(6) 0.1841(6) 0.4698(3) 0.035(4) 1 0
O25 O1- 2 i -0.1669(6) 0.2564(5) 0.3701(3) 0.033(4) 1 0
O26 O2- 2 i 0.3780(6) 0.5283(5) 0.2740(3) 0.029(4) 1 0
O27 O2- 2 i 0.5813(5) 0.0924(5) 0.2666(3) 0.022(4) 1 0
O28 O2- 2 i 0.2750(6) 0.0487(5) 0.3243(3) 0.034(4) 1 0
O29 O2- 2 i -0.4548(6) 0.5069(5) 0.2198(3) 0.024(4) 1 0
O30 O2- 2 i -0.3831(6) 0.7631(5) 0.0863(3) 0.026(4) 1 0
O31 O1- 2 i 0.3339(6) -0.0717(5) 0.3480(3) 0.032(4) 1 0
O32 O2- 2 i 0.4305(6) 0.3472(5) 0.3383(3) 0.027(4) 1 0
O33 O2- 2 i 0.4256(5) 0.1272(5) 0.4375(3) 0.019(4) 1 0
O34 O2- 2 i 0.3012(6) 0.6132(5) 0.3040(3) 0.030(4) 1 0
O35 O1- 2 i -0.1130(6) 0.5881(5) 0.3587(3) 0.032(4) 1 0
O36 O2- 2 i 0.3711(6) 0.0810(6) 0.2364(3) 0.036(4) 1 0
O37 O2- 2 i 0.4745(6) -0.0518(5) 0.3559(3) 0.022(4) 1 0
O38 O2- 2 i 0.5284(6) 0.4080(5) 0.2665(3) 0.036(4) 1 0
O39 O2- 2 i 0.4213(6) 0.4268(5) 0.2594(3) 0.022(4) 1 0
O40 O2- 2 i 0.3699(6) 0.4806(5) 0.1186(3) 0.021(4) 1 0
O41 O1- 2 i -0.0635(6) 0.7905(6) 0.0121(3) 0.035(4) 1 0
O42 O2- 2 i 0.5615(5) 0.2937(5) 0.3401(3) 0.015(3) 1 0
O43 O2- 2 i -0.2296(6) 0.2634(5) 0.2812(3) 0.026(4) 1 0
O44 O2- 2 i -0.0217(6) 0.4684(5) 0.4821(3) 0.031(4) 1 0
O45 O1- 2 i 0.1072(6) 0.1604(5) 0.5209(3) 0.023(4) 1 0
O46 O2- 2 i 0.3069(6) 0.2019(5) 0.5105(3) 0.035(4) 1 0
O47 O2- 2 i 0.1091(6) 0.5635(5) 0.3595(3) 0.031(4) 1 0
O48 O2- 2 i -0.2540(6) 0.3405(5) 0.1705(3) 0.030(4) 1 0
O49 O2- 2 i 0.4003(6) 0.2363(5) 0.4195(3) 0.024(4) 1 0
O50 O2- 2 i 0.2223(6) 0.6980(5) 0.1385(3) 0.032(4) 1 0
O51 O2- 2 i -0.1335(6) 0.8210(5) 0.2423(3) 0.038(4) 1 0
O52 O2- 2 i 0.0275(6) 0.8209(6) 0.0844(3) 0.040(5) 1 0
O53 O2- 2 i -0.2243(6) 0.8641(5) 0.1908(3) 0.030(4) 1 0
O54 O2- 2 i -0.4021(6) 0.5643(5) 0.1939(3) 0.028(4) 1 0
O55 O2- 2 i 0.3377(5) 0.1433(5) 0.4651(3) 0.021(4) 1 0
O56 O2- 2 i 0.4403(6) -0.1415(5) 0.3853(3) 0.037(4) 1 0
O57 O2- 2 i 0.2201(5) 0.2115(5) 0.4502(3) 0.023(4) 1 0
O58 O2- 2 i 0.0965(6) 0.3615(5) 0.5022(3) 0.025(4) 1 0
O59 O1- 2 i -0.1053(6) 0.2574(6) 0.2958(3) 0.040(5) 1 0
O60 O1- 2 i 0.5847(6) 0.1960(5) 0.3256(3) 0.030(4) 1 0
O61 O2- 2 i 0.5515(6) -0.0856(5) 0.4418(3) 0.025(4) 1 0
O62 O1- 2 i 0.2093(6) -0.0581(5) 0.3937(3) 0.034(4) 1 0
O63 O2- 2 i 0.1632(6) 0.1351(5) 0.4694(3) 0.025(4) 1 0
O64 O2- 2 i 0.0081(5) 0.4015(5) 0.4548(3) 0.021(4) 1 0
O65 O1- 2 i -0.0921(6) 0.3504(6) 0.1149(3) 0.040(5) 1 0
O66 O2- 2 i 0.5554(5) -0.0925(5) 0.3933(3) 0.020(4) 1 0
O67 O1- 2 i 0.3759(6) -0.0550(5) 0.3318(3) 0.035(4) 1 0
O68 O2- 2 i 0.3262(6) 0.5894(5) 0.1580(3) 0.023(4) 1 0
O69 O2- 2 i -0.2186(6) 0.2576(5) 0.4240(3) 0.030(4) 1 0
O70 O1- 2 i 0.0823(6) 0.1275(5) 0.5140(3) 0.022(4) 1 0
O71 O1- 2 i 0.6041(6) 0.0934(5) 0.3422(3) 0.024(4) 1 0
O72 O1- 2 i -0.2378(6) 0.3542(5) 0.3761(3) 0.027(4) 1 0
O73 O2- 2 i -0.3712(5) 0.7634(5) 0.1465(3) 0.021(4) 1 0
O74 O1- 2 i -0.0267(6) 0.4489(5) 0.0809(3) 0.036(4) 1 0
O75 O2- 2 i 0.3593(6) -0.0036(5) 0.3786(3) 0.026(4) 1 0
O76 O2- 2 i -0.1612(6) 0.3565(5) 0.2522(3) 0.024(4) 1 0
O77 O1- 2 i -0.4905(6) 0.8175(5) 0.1143(3) 0.037(4) 1 0
O78 O1- 2 i -0.2614(6) 0.4852(5) 0.3153(3) 0.026(4) 1 0
O79 O1- 2 i 0.3860(6) 0.1800(5) 0.1684(3) 0.035(4) 1 0
O80 O2- 2 i -0.1788(6) 0.6880(5) 0.0194(3) 0.033(4) 1 0
O81 O1- 2 i 0.3089(6) 0.5582(5) 0.2208(3) 0.034(4) 1 0
O82 O2- 2 i 0.0171(6) 0.9282(5) 0.1877(3) 0.034(4) 1 0
O83 O2- 2 i -0.3564(6) 0.9609(5) 0.2072(3) 0.029(4) 1 0
O84 O1- 2 i 0.0166(6) 0.5897(5) 0.3977(3) 0.033(4) 1 0
O85 O2- 2 i -0.1642(6) 0.3162(5) 0.4517(3) 0.037(4) 1 0
O86 O2- 2 i -0.1950(6) 0.4894(5) 0.4227(3) 0.038(4) 1 0
O87 O2- 2 i 0.2933(6) 0.4621(5) 0.2577(3) 0.025(4) 1 0
O88 O2- 2 i -0.3377(6) 0.4512(5) 0.3627(3) 0.031(4) 1 0
O89 O2- 2 i -0.1913(6) 0.4407(5) 0.3683(3) 0.029(4) 1 0
O90 O2- 2 i -0.2301(6) 0.4611(5) 0.2598(3) 0.023(4) 1 0
O91 O2- 2 i -0.1013(6) 0.1930(6) 0.2069(3) 0.035(4) 1 0
O92 O2- 2 i -0.3134(6) 0.2985(5) 0.2029(3) 0.029(4) 1 0
O93 O2- 2 i 0.4316(5) 0.1777(5) 0.3761(3) 0.019(4) 1 0
O94 O1- 2 i 0.3231(6) -0.0952(5) 0.4046(3) 0.031(4) 1 0
O95 O1- 2 i -0.1463(6) 0.9888(5) 0.1922(3) 0.026(4) 1 0
O96 O1- 2 i 0.2132(6) 0.6103(5) 0.1885(3) 0.025(4) 1 0
O97 O1- 2 i 0.2906(6) 0.3126(5) 0.1322(3) 0.026(4) 1 0
O98 O2- 2 i -0.1517(6) 0.9220(6) 0.1546(3) 0.038(4) 1 0
O99 O2- 2 i -0.2424(6) 0.8399(5) 0.0448(3) 0.034(4) 1 0
O100 O2- 2 i 0.2506(6) 0.6089(5) 0.3797(3) 0.034(4) 1 0
O101 O2- 2 i 0.4681(6) 0.4118(5) 0.3078(3) 0.031(4) 1 0
O102 O2- 2 i 0.0266(6) 0.4826(5) 0.4346(3) 0.029(4) 1 0
O103 O1- 2 i 0.0224(6) 0.3036(5) 0.4945(3) 0.025(4) 1 0
O104 O2- 2 i -0.3877(6) 0.6301(5) 0.2253(3) 0.031(4) 1 0
O105 O2- 2 i 0.5753(6) -0.1114(6) 0.3461(3) 0.040(5) 1 0
O106 O1- 2 i -0.2476(5) 0.3690(5) 0.4044(3) 0.023(4) 1 0
O107 O2- 2 i 0.1014(6) 0.7765(5) 0.1268(3) 0.034(4) 1 0
O108 O2- 2 i 0.6603(6) 0.1286(5) 0.2921(3) 0.023(4) 1 0
O109 O1- 2 i -0.1013(6) 0.9898(5) 0.1708(3) 0.031(4) 1 0
O110 O2- 2 i 0.0338(6) 0.8145(5) 0.0229(3) 0.031(4) 1 0
O111 O2- 2 i 0.0992(6) 0.9006(5) 0.2245(3) 0.037(4) 1 0
O112 O2- 2 i 0.3385(6) 0.3388(5) 0.1797(3) 0.030(4) 1 0
O113 O2- 2 i -0.5031(6) 0.8582(5) 0.1629(3) 0.033(4) 1 0
O114 O2- 2 i -0.1334(6) 0.2471(5) 0.2414(3) 0.035(4) 1 0
O115 O2- 2 i -0.0100(6) 0.2168(5) 0.5326(3) 0.025(4) 1 0
O116 O2- 2 i 0.5077(6) 0.1594(5) 0.2987(3) 0.025(4) 1 0
O117 O2- 2 i -0.2816(6) 0.4684(6) 0.4108(3) 0.044(5) 1 0
O118 O2- 2 i -0.4213(7) 0.5697(6) 0.1062(3) 0.049(5) 1 0
O119 O2- 2 i -0.1320(6) 0.2368(5) 0.4909(3) 0.026(4) 1 0
O120 O2- 2 i 0.3611(6) 0.4327(5) 0.3099(3) 0.030(4) 1 0
O121 O2- 2 i -0.0696(6) 0.7899(5) 0.0739(3) 0.027(4) 1 0
O122 O2- 2 i 0.3723(6) 0.4722(5) 0.1715(3) 0.030(4) 1 0
O123 O2- 2 i -0.3475(6) 0.4846(5) 0.2334(3) 0.030(4) 1 0
O124 O2- 2 i 0.2602(6) 0.4988(6) 0.1963(3) 0.040(5) 1 0
O125 O2- 2 i 0.6227(6) -0.0046(5) 0.3899(3) 0.027(4) 1 0
O126 O2- 2 i 0.1003(5) 0.3039(5) 0.4452(3) 0.023(4) 1 0
O127 O1- 2 i 0.2281(6) 0.6717(5) 0.2549(3) 0.037(4) 1 0
O128 O2- 2 i -0.2033(7) 0.6526(6) -0.0180(3) 0.047(5) 1 0
O129 O1- 2 i 0.0762(6) 0.2653(5) 0.5074(3) 0.030(4) 1 0
O130 O2- 2 i 0.1083(6) 0.4729(5) 0.4668(3) 0.034(4) 1 0
O131 O1- 2 i -0.1768(6) 0.4600(6) 0.0568(3) 0.036(4) 1 0
O132 O1- 2 i -0.4522(6) 0.7376(5) 0.1900(3) 0.037(4) 1 0
O133 O2- 2 i -0.4204(6) 0.9036(5) 0.1840(3) 0.025(4) 1 0
O134 O2- 2 i -0.0292(6) 0.1365(6) 0.3785(3) 0.036(4) 1 0
O135 O2- 2 i 0.4156(6) 0.3929(5) 0.1528(3) 0.030(4) 1 0
O136 O2- 2 i -0.1008(6) 0.2139(5) 0.4446(3) 0.035(4) 1 0
O137 O2- 2 i -0.3868(6) 0.6597(5) 0.1024(3) 0.023(4) 1 0
O138 O2- 2 i -0.0978(6) 0.7312(5) -0.0186(3) 0.036(4) 1 0
O139 O2- 2 i -0.0644(6) 0.8773(5) 0.2041(3) 0.036(4) 1 0
O140 O2- 2 i 0.3044(6) -0.0416(5) 0.4684(3) 0.026(4) 1 0
O141 O2- 2 i 0.1558(6) 0.6210(5) 0.2959(3) 0.028(4) 1 0
O142 O1- 2 i -0.0905(7) 0.8935(6) 0.2639(3) 0.046(5) 1 0
O143 O2- 2 i -0.1577(6) 0.9940(5) 0.0104(3) 0.026(4) 1 0
O144 O2- 2 i -0.4267(6) 0.5581(5) 0.2448(3) 0.030(4) 1 0
O145 O2- 2 i 0.1182(6) 0.4013(5) 0.4435(3) 0.035(4) 1 0
O146 O2- 2 i 0.2544(5) 0.0131(5) 0.4133(3) 0.021(4) 1 0
O147 O1- 2 i 0.3636(6) 0.5145(5) 0.2170(3) 0.032(4) 1 0
O148 O2- 2 i 0.1254(6) 0.6760(5) 0.1153(3) 0.033(4) 1 0
O149 O2- 2 i -0.2051(6) 0.2524(5) 0.2049(3) 0.033(4) 1 0
O150 O1- 2 i -0.2512(6) 0.9792(5) 0.1864(3) 0.037(4) 1 0
O151 O1- 2 i -0.1426(7) 0.9313(6) 0.2448(3) 0.047(5) 1 0
O152 O2- 2 i 0.3517(6) 0.0238(5) 0.2802(3) 0.032(4) 1 0
O153 O2- 2 i -0.1378(6) 0.7434(5) 0.0507(3) 0.029(4) 1 0
O154 O2- 2 i -0.0685(6) 0.2854(5) 0.4754(3) 0.029(4) 1 0
O155 O2- 2 i 0.2136(6) 0.5359(5) 0.3969(3) 0.026(4) 1 0
O156 O1- 2 i 0.1983(6) 0.7012(6) 0.1963(3) 0.038(4) 1 0
O157 O2- 2 i -0.0306(6) 0.1722(5) 0.4887(3) 0.029(4) 1 0
O158 O2- 2 i 0.0497(6) 0.2217(5) 0.4638(3) 0.023(4) 1 0
O159 O1- 2 i 0.2502(6) 0.5678(5) 0.2674(3) 0.030(4) 1 0
O160 O2- 2 i 0.1173(5) 0.5807(5) 0.4308(3) 0.020(4) 1 0
O161 O1- 2 i 0.2177(5) -0.0337(5) 0.3367(3) 0.019(4) 1 0
O162 O2- 2 i 0.6069(6) 0.1407(5) 0.2208(3) 0.024(4) 1 0
O163 O1- 2 i -0.2862(6) 0.3828(5) 0.2650(3) 0.030(4) 1 0
O164 O2- 2 i 0.2214(6) 0.7767(6) 0.2204(3) 0.043(5) 1 0
O165 O2- 2 i 0.4099(6) 0.2340(5) 0.2070(3) 0.037(4) 1 0
O166 O2- 2 i -0.0963(6) 0.4991(5) 0.0230(3) 0.032(4) 1 0
O167 O2- 2 i 0.2930(6) 0.4433(5) 0.1357(3) 0.035(4) 1 0
O168 O2- 2 i -0.1592(6) 0.7870(5) 0.3383(3) 0.025(4) 1 0
O169 O2- 2 i 0.5555(6) -0.0211(5) 0.3487(3) 0.028(4) 1 0
O170 O1- 2 i 0.2016(6) 0.7071(6) 0.2744(3) 0.044(5) 1 0
O171 O2- 2 i 0.6316(6) 0.2192(5) 0.2100(3) 0.024(4) 1 0
O172 O2- 2 i -0.1046(6) 0.6165(5) 0.0027(3) 0.029(4) 1 0
O173 O2- 2 i 0.4190(6) -0.0157(6) 0.2442(3) 0.040(5) 1 0
O174 O2- 2 i 0.4597(6) -0.0690(5) 0.4159(3) 0.029(4) 1 0
O175 O1- 2 i -0.2009(6) 0.9199(6) 0.0039(3) 0.042(5) 1 0
O176 O1- 2 i 0.5652(6) 0.2315(5) 0.2969(3) 0.028(4) 1 0
O177 O2- 2 i -0.1225(6) 0.9651(6) 0.0722(3) 0.038(4) 1 0
O178 O2- 2 i -0.4265(6) 0.5530(5) 0.0588(3) 0.031(4) 1 0
O179 O2- 2 i -0.3298(6) 0.8314(5) 0.0074(3) 0.030(4) 1 0
O180 O2- 2 i 0.5302(6) 0.2315(5) 0.1976(3) 0.029(4) 1 0
O181 O2- 2 i 0.2328(6) 0.0627(5) 0.2677(3) 0.033(4) 1 0
O182 O2- 2 i 0.0962(7) 0.6865(6) 0.1743(3) 0.052(5) 1 0
O183 O2- 2 i -0.3387(7) 0.9175(6) 0.1567(3) 0.051(5) 1 0
O184 O2- 2 i -0.2211(6) 0.5695(5) 0.3648(3) 0.030(4) 1 0
O185 O2- 2 i 0.2736(6) 0.5371(6) 0.1297(3) 0.041(5) 1 0
O186 O1- 2 i 0.0224(6) 0.6410(5) 0.3862(3) 0.029(4) 1 0
O187 O2- 2 i -0.0431(6) 0.2451(5) 0.3477(3) 0.029(4) 1 0
O188 O1- 2 i -0.0648(6) 0.8953(6) 0.0446(3) 0.043(5) 1 0
O189 O2- 2 i -0.2910(7) 0.9127(6) -0.0281(3) 0.051(5) 1 0
O190 O2- 2 i -0.5184(6) 0.8620(6) 0.0527(3) 0.043(5) 1 0
O191 O2- 2 i 0.1754(5) 0.0592(5) 0.3626(3) 0.021(4) 1 0
O192 O1- 2 i 0.1957(6) 0.6013(5) 0.1613(3) 0.038(4) 1 0
O193 O2- 2 i 0.5077(6) 0.1708(6) 0.1596(3) 0.040(5) 1 0
O194 O2- 2 i 0.4195(6) 0.4271(5) 0.3535(3) 0.036(4) 1 0
O195 O1- 2 i 0.1824(6) 0.0135(5) 0.3131(3) 0.027(4) 1 0
O196 O2- 2 i 0.0558(7) 0.7197(6) 0.0725(3) 0.043(5) 1 0
O197 O1- 2 i 0.2624(6) 0.5303(5) 0.2965(3) 0.030(4) 1 0
O198 O2- 2 i 0.2906(6) -0.0515(5) 0.2895(3) 0.038(4) 1 0
O199 O2- 2 i -0.1136(6) 0.3116(5) 0.3974(3) 0.035(4) 1 0
O200 O1- 2 i -0.4731(6) 0.7428(6) 0.0580(3) 0.042(5) 1 0
O201 O2- 2 i -0.1888(6) 0.7836(5) 0.2911(3) 0.035(4) 1 0
O202 O1- 2 i -0.4831(6) 0.7490(6) 0.1626(3) 0.043(5) 1 0
O203 O2- 2 i -0.2505(6) 0.4968(5) 0.1036(3) 0.029(4) 1 0
O204 O2- 2 i -0.1070(6) 0.6668(5) 0.3914(3) 0.036(4) 1 0
O205 O2- 2 i -0.3292(6) 0.8459(5) 0.2131(3) 0.028(4) 1 0
O206 O1- 2 i -0.4580(6) 0.8530(5) 0.1062(3) 0.033(4) 1 0
O207 O2- 2 i -0.1372(6) 0.1761(5) 0.3404(3) 0.035(4) 1 0
O208 O1- 2 i -0.2588(6) 0.8719(6) 0.2498(3) 0.039(4) 1 0
O209 O2- 2 i -0.1800(6) 0.4051(5) 0.1518(3) 0.036(4) 1 0
O210 O2- 2 i 0.3215(7) 0.1096(6) 0.1754(3) 0.048(5) 1 0
O211 O2- 2 i -0.1451(6) 0.5232(5) 0.0885(3) 0.033(4) 1 0
O212 O2- 2 i -0.2471(6) 0.3349(5) 0.2219(3) 0.031(4) 1 0
O213 O1- 2 i 0.4890(6) 0.2500(5) 0.3816(3) 0.024(4) 1 0
O214 O2- 2 i -0.1298(6) 0.2915(6) 0.1906(3) 0.044(5) 1 0
O215 O2- 2 i 0.2044(5) 0.0592(5) 0.5420(3) 0.021(4) 1 0
O216 O2- 2 i 0.3177(6) 0.5171(5) 0.3875(3) 0.030(4) 1 0
O217 O2- 2 i 0.2363(6) -0.0439(5) 0.5080(3) 0.037(4) 1 0
O218 O2- 2 i -0.2465(6) 0.7678(6) 0.3324(3) 0.041(5) 1 0
O219 O2- 2 i -0.1584(6) 0.3206(6) 0.5023(3) 0.038(4) 1 0
O220 O2- 2 i 0.4880(6) 0.3379(6) 0.2865(3) 0.036(4) 1 0
O221 O2- 2 i 0.0231(7) 0.8713(6) 0.2474(3) 0.053(5) 1 0
O222 O2- 2 i -0.1962(6) 0.8895(6) 0.2950(3) 0.042(5) 1 0
O223 O1- 2 i -0.4957(6) 0.7519(5) 0.0841(3) 0.035(4) 1 0
O224 O1- 2 i -0.0902(6) 0.8835(6) 0.0222(3) 0.039(5) 1 0
O225 O2- 2 i 0.5066(6) -0.0051(5) 0.4017(3) 0.030(4) 1 0
O226 O2- 2 i 0.3962(6) 0.2765(6) 0.4606(3) 0.040(5) 1 0
O227 O2- 2 i 0.4624(6) 0.4577(5) 0.1445(3) 0.036(4) 1 0
O228 O2- 2 i -0.1075(6) 0.4809(5) 0.3795(3) 0.031(4) 1 0
O229 O2- 2 i -0.3601(6) 0.4816(6) 0.0971(3) 0.037(4) 1 0
O230 O1- 2 i -0.1223(6) 0.2127(5) 0.3918(3) 0.032(4) 1 0
O231 O2- 2 i -0.0171(6) 0.1588(6) 0.3180(3) 0.044(5) 1 0
O232 O2- 2 i -0.4049(6) 0.5995(6) 0.0108(3) 0.042(5) 1 0
O233 O2- 2 i 0.3126(7) 0.0278(6) 0.2345(3) 0.043(5) 1 0
O234 O2- 2 i -0.4642(6) 0.5061(5) 0.1010(3) 0.031(4) 1 0
O235 O2- 2 i -0.0557(6) 0.6468(6) 0.0363(3) 0.036(4) 1 0
O236 O1- 2 i -0.2584(6) 0.3910(5) 0.1119(3) 0.031(4) 1 0
O237 O1- 2 i 0.4077(6) 0.2655(6) 0.1435(3) 0.043(5) 1 0
O238 O2- 2 i -0.0146(6) 0.0728(6) 0.3500(3) 0.040(5) 1 0
O239 O1- 2 i 0.5256(6) 0.0775(5) 0.4106(3) 0.032(4) 1 0
O240 O2- 2 i 0.0640(7) 0.0568(6) 0.3857(3) 0.055(5) 1 0
O241 O2- 2 i 0.2374(6) 0.3105(5) 0.1887(3) 0.038(4) 1 0
O242 O1- 2 i -0.0656(6) 0.4225(6) 0.0761(3) 0.039(5) 1 0
O243 O2- 2 i 0.6015(6) 0.0529(6) 0.2254(3) 0.038(4) 1 0
O244 O2- 2 i -0.3544(7) 0.9272(6) 0.0230(3) 0.044(5) 1 0
O245 O1- 2 i 0.1628(6) 0.7584(5) 0.1783(3) 0.033(4) 1 0
O246 O1- 2 i 0.1637(6) -0.0297(6) 0.4105(3) 0.039(4) 1 0
O247 O2- 2 i -0.0886(6) 0.8222(6) 0.3502(3) 0.043(5) 1 0
O248 O2- 2 i -0.0894(6) 0.8011(6) 0.3031(3) 0.037(4) 1 0
O249 O2- 2 i -0.2940(6) 0.4520(6) 0.0485(3) 0.045(5) 1 0
O250 O2- 2 i 0.1389(7) 0.6462(6) 0.3751(3) 0.052(5) 1 0
O251 O1- 2 i 0.4488(6) 0.2860(5) 0.1529(3) 0.029(4) 1 0
O252 O2- 2 i 0.1459(6) 0.0352(6) 0.4978(3) 0.038(4) 1 0
O253 O2- 2 i -0.3939(6) 0.8712(6) 0.1416(3) 0.045(5) 1 0
O254 O2- 2 i -0.1736(6) 0.8916(6) 0.0675(3) 0.046(5) 1 0
O255 O2- 2 i 0.1165(6) 0.4897(5) 0.4134(3) 0.035(4) 1 0
O256 O1- 2 i -0.2138(6) 0.7959(6) -0.0038(3) 0.040(5) 1 0
O257 O1- 2 i -0.0261(6) 0.7375(6) 0.0276(3) 0.036(4) 1 0
O258 O2- 2 i -0.1795(6) 0.5976(6) 0.0326(3) 0.044(5) 1 0
O259 O2- 2 i -0.1705(6) 0.5857(5) 0.4141(3) 0.029(4) 1 0
O260 O1- 2 i 0.2637(6) 0.1241(5) 0.5021(3) 0.033(4) 1 0
O261 O1- 2 i -0.4670(6) 0.6272(6) 0.1443(3) 0.041(5) 1 0
O262 O2- 2 i -0.0204(6) 0.6233(5) 0.3342(3) 0.036(4) 1 0
O263 O2- 2 i 0.0865(7) 0.8929(6) 0.2771(3) 0.053(5) 1 0
O264 O2- 2 i 0.1008(7) 0.8395(6) 0.1965(3) 0.050(5) 1 0
O265 O2- 2 i -0.0742(6) 0.4874(5) 0.4356(3) 0.031(4) 1 0
O266 O2- 2 i -0.0748(6) 0.4334(6) 0.1369(3) 0.039(4) 1 0
O267 O2- 2 i -0.3308(6) 0.5539(6) 0.2630(3) 0.040(5) 1 0
O268 O2- 2 i -0.4073(6) 0.8741(6) 0.0575(3) 0.045(5) 1 0
O269 O1- 2 i 0.4206(6) 0.1363(5) 0.1939(3) 0.035(4) 1 0
O270 O2- 2 i 0.0728(6) 0.0832(5) 0.3237(3) 0.031(4) 1 0
O271 O2- 2 i 0.2555(6) -0.1136(5) 0.4532(3) 0.025(4) 1 0
O272 O2- 2 i 0.2616(6) 0.0353(6) 0.4922(3) 0.039(4) 1 0
O273 O1- 2 i -0.2781(6) 0.9813(6) 0.1595(3) 0.043(5) 1 0
O274 O2- 2 i -0.3003(6) 0.5426(6) 0.3551(3) 0.041(5) 1 0
O275 O2- 2 i 0.3127(6) 0.1978(6) 0.2193(3) 0.039(4) 1 0
O276 O2- 2 i -0.5072(6) 0.6588(5) 0.1971(3) 0.038(4) 1 0
O277 O2- 2 i 0.1255(7) 0.8118(6) 0.2575(3) 0.046(5) 1 0
O278 O2- 2 i 0.1997(6) 0.6709(6) 0.3346(3) 0.041(5) 1 0
O279 O2- 2 i -0.0577(6) 0.9812(5) 0.2299(3) 0.038(4) 1 0
O280 O2- 2 i 0.3645(6) 0.3711(6) 0.1050(3) 0.043(5) 1 0
O281 O2- 2 i 0.1045(6) -0.0287(5) 0.3583(3) 0.033(4) 1 0
O282 O2- 2 i 0.1810(6) -0.0127(6) 0.4628(3) 0.038(4) 1 0
O283 O2- 2 i 0.1316(7) 0.7610(6) 0.0802(3) 0.049(5) 1 0
O284 O2- 2 i -0.2211(6) 1.0590(5) 0.1441(3) 0.037(4) 1 0
O285 O2- 2 i -0.2855(7) 0.5050(6) 0.4534(3) 0.050(5) 1 0
O286 O2- 2 i -0.4455(7) 0.9706(6) 0.1370(3) 0.053(5) 1 0
O287 O2- 2 i -0.1156(6) 0.1457(5) 0.4882(3) 0.037(4) 1 0
O288 O2- 2 i -0.0527(6) 0.7292(6) 0.3478(3) 0.045(5) 1 0
O289 O2- 2 i 0.5120(6) 0.1350(6) 0.2233(3) 0.041(5) 1 0
O290 O1- 2 i 0.2265(7) 0.2151(6) 0.1732(4) 0.056(5) 1 0
O291 O1- 2 i 0.2514(6) 0.3650(6) 0.1325(3) 0.044(5) 1 0
O292 O1- 2 i -0.2522(6) 0.9533(6) 0.0141(3) 0.039(4) 1 0
O293 O1- 2 i -0.0662(7) 0.3210(6) 0.1431(4) 0.054(5) 1 0
O294 O2- 2 i -0.1945(7) 1.0571(6) 0.0710(3) 0.048(5) 1 0
O295 O2- 2 i 0.1141(7) 0.9235(6) 0.1722(4) 0.058(5) 1 0
O296 O2- 2 i 0.0054(7) 0.5767(6) 0.0116(3) 0.047(5) 1 0
O297 O1- 2 i -0.4935(6) 0.6832(6) 0.1363(3) 0.042(5) 1 0
O298 O2- 2 i -0.0856(7) 1.0401(6) 0.0664(4) 0.062(6) 1 0
O299 O1- 2 i -0.2401(6) 0.4256(6) 0.3226(3) 0.040(5) 1 0
O300 O1- 2 i -0.2159(6) 0.5157(6) 0.0428(3) 0.044(5) 1 0
O301 O2- 2 i -0.1640(6) 0.2827(6) 0.1346(3) 0.043(5) 1 0
O302 O2- 2 i -0.4044(7) 0.8436(7) -0.0285(4) 0.067(6) 1 0
O303 O2- 2 i 0.1163(7) 0.8464(7) 0.0875(4) 0.065(6) 1 0
O304 O2- 2 i -0.4259(7) 0.8586(6) 0.2343(3) 0.050(5) 1 0
O305 O2- 2 i 0.0231(8) 0.3352(7) 0.1678(4) 0.071(6) 1 0
O306 O2- 2 i 0.1969(7) 0.7043(6) 0.3765(3) 0.049(5) 1 0
O307 O2- 2 i -0.4137(6) 0.8052(6) 0.0240(3) 0.045(5) 1 0
O308 O2- 2 i -0.0160(7) 0.0865(6) 0.2991(3) 0.050(5) 1 0
O309 O2- 2 i -0.5266(6) 0.6632(6) 0.0848(3) 0.043(5) 1 0
O310 O2- 2 i -0.0608(6) 0.5596(6) 0.0534(3) 0.042(5) 1 0
O311 O2- 2 i -0.1226(7) 1.0020(6) 0.1139(4) 0.056(5) 1 0
O312 O1- 2 i -0.2067(7) 0.3870(6) 0.0957(3) 0.046(5) 1 0
O313 O1- 2 i -0.1764(6) 0.8275(6) -0.0073(3) 0.042(5) 1 0
O314 O2- 2 i -0.4270(6) 0.6205(6) 0.2744(3) 0.043(5) 1 0
O315 O2- 2 i -0.3324(7) 0.5590(6) 0.0529(3) 0.054(5) 1 0
O316 O2- 2 i 0.1665(7) 0.6727(6) 0.0652(4) 0.058(5) 1 0
O317 O2- 2 i 0.2807(6) 0.5094(6) 0.0852(3) 0.042(5) 1 0
O318 O1- 2 i 0.2722(7) 0.2244(6) 0.1574(3) 0.051(5) 1 0
O319 O2- 2 i -0.4278(7) 0.9000(7) 0.0037(4) 0.059(5) 1 0
O320 O2- 2 i 0.0999(6) 0.7362(6) 0.2330(3) 0.044(5) 1 0
O321 O2- 2 i -0.2448(7) 1.0063(6) 0.0538(4) 0.057(5) 1 0
O322 O2- 2 i -0.4205(7) 0.6424(7) 0.0509(4) 0.059(5) 1 0
O323 O2- 2 i 0.3379(7) -0.0545(6) 0.5187(3) 0.049(5) 1 0
O324 O2- 2 i -0.4623(7) 0.9703(6) 0.0295(3) 0.046(5) 1 0
O325 O2- 2 i 0.1400(7) -0.0494(6) 0.5080(3) 0.049(5) 1 0
O326 O2- 2 i -0.3294(7) 0.6322(6) 0.3581(4) 0.057(5) 1 0
O327 O2- 2 i -0.0285(7) 0.0451(6) 0.4027(3) 0.047(5) 1 0
O328 O2- 2 i 0.2482(7) 0.1244(7) 0.2263(4) 0.061(5) 1 0
O329 O2- 2 i 0.0670(9) 0.3942(8) 0.1831(5) 0.089(7) 1 0
O330 O2- 2 i -0.3014(8) 1.0855(7) 0.0724(4) 0.069(6) 1 0
O331 O2- 2 i 0.0309(7) 0.3351(6) 0.1089(4) 0.059(5) 1 0
O332 O2- 2 i 0.2071(7) 0.0612(6) 0.2161(4) 0.065(6) 1 0
O333 O2- 2 i -0.2389(7) 1.0033(7) 0.1049(4) 0.061(6) 1 0
O334 O2- 2 i 0.0448(9) 0.4191(8) 0.1301(5) 0.095(7) 1 0
O335 O2- 2 i 0.1798(7) 0.3080(6) 0.1239(3) 0.054(5) 1 0
O336 O2- 2 i 0.1459(8) 0.3955(7) 0.1513(4) 0.070(6) 1 0
O337 O2- 2 i 0.1277(9) 0.3031(8) 0.1819(4) 0.095(7) 1 0
O338 O2- 2 i 0.0643(9) 0.4819(9) 0.1557(4) 0.103(8) 1 0
O339 O2- 2 i 0.0594(10) 0.3185(9) 0.2197(6) 0.126(9) 1 0
O340 O2- 2 i 0.2793(7) 0.4515(7) 0.3494(4) 0.068(6) 1 0
O341 O2- 2 i 0.3525(10) 0.3377(9) 0.3827(5) 0.123(9) 1 0
O342 O2- 2 i 0.0613(10) 0.6886(9) 0.3306(5) 0.128(9) 1 0
loop_
_atom_site_aniso_label
_atom_site_aniso_type_symbol
_atom_site_aniso_U_11
_atom_site_aniso_U_22
_atom_site_aniso_U_33
_atom_site_aniso_U_12
_atom_site_aniso_U_13
_atom_site_aniso_U_23
U1 U6+ 0.0206(5) 0.0225(5) 0.0213(6) -0.0076(5) 0.0035(4) -0.0067(5)
U2 U6+ 0.0208(5) 0.0222(6) 0.0273(6) -0.0087(5) 0.0033(5) -0.0091(5)
U3 U6+ 0.0209(5) 0.0226(6) 0.0212(6) -0.0076(5) 0.0015(4) -0.0046(5)
U4 U6+ 0.0181(5) 0.0243(6) 0.0249(6) -0.0067(5) 0.0012(5) -0.0069(5)
U5 U6+ 0.0203(5) 0.0240(6) 0.0260(6) -0.0087(5) 0.0009(5) -0.0078(5)
U6 U6+ 0.0218(6) 0.0232(6) 0.0248(6) -0.0053(5) -0.0025(5) -0.0038(5)
U7 U6+ 0.0207(5) 0.0238(6) 0.0243(6) -0.0068(5) 0.0032(5) -0.0085(5)
U8 U6+ 0.0210(6) 0.0328(6) 0.0244(6) -0.0079(5) 0.0011(5) -0.0090(5)
U9 U6+ 0.0228(6) 0.0303(6) 0.0264(6) -0.0103(5) 0.0005(5) -0.0100(5)
U10 U6+ 0.0203(5) 0.0277(6) 0.0234(6) -0.0053(5) 0.0017(5) -0.0075(5)
U11 U6+ 0.0242(6) 0.0261(6) 0.0273(6) -0.0071(5) 0.0015(5) -0.0061(5)
U12 U6+ 0.0305(6) 0.0281(6) 0.0271(6) -0.0101(5) 0.0010(5) -0.0110(5)
U13 U6+ 0.0273(6) 0.0285(6) 0.0231(6) -0.0123(5) -0.0019(5) -0.0071(5)
U14 U6+ 0.0259(6) 0.0236(6) 0.0220(6) -0.0075(5) 0.0003(5) -0.0049(5)
U15 U6+ 0.0226(6) 0.0260(6) 0.0286(6) -0.0088(5) 0.0003(5) -0.0068(5)
U16 U6+ 0.0213(6) 0.0396(6) 0.0302(6) -0.0081(5) -0.0009(5) -0.0139(5)
U17 U6+ 0.0290(6) 0.0332(6) 0.0303(6) -0.0112(5) 0.0010(5) -0.0058(5)
U18 U6+ 0.0285(6) 0.0282(6) 0.0286(6) -0.0097(5) 0.0018(5) -0.0063(5)
U19 U6+ 0.0276(6) 0.0331(6) 0.0303(6) -0.0109(5) -0.0021(5) -0.0066(5)
U20 U6+ 0.0381(7) 0.0321(6) 0.0283(7) -0.0124(5) 0.0022(5) -0.0047(5)
U21 U6+ 0.0314(6) 0.0328(6) 0.0275(6) -0.0156(5) -0.0075(5) -0.0030(5)
U22 U6+ 0.0394(7) 0.0329(6) 0.0279(6) -0.0176(5) -0.0035(5) -0.0042(5)
U23 U6+ 0.0258(6) 0.0341(6) 0.0331(7) -0.0117(5) -0.0011(5) -0.0091(5)
U24 U6+ 0.0284(6) 0.0311(6) 0.0307(6) -0.0080(5) -0.0073(5) -0.0097(5)
U25 U6+ 0.0315(6) 0.0257(6) 0.0328(7) -0.0089(5) -0.0041(5) -0.0037(5)
U26 U6+ 0.0271(6) 0.0288(6) 0.0267(6) -0.0031(5) -0.0026(5) -0.0074(5)
U27 U6+ 0.0319(6) 0.0293(6) 0.0307(7) -0.0043(5) 0.0027(5) -0.0089(5)
U28 U6+ 0.0340(6) 0.0288(6) 0.0381(7) -0.0078(5) 0.0014(5) -0.0091(5)
U29 U6+ 0.0297(6) 0.0290(6) 0.0299(6) -0.0048(5) 0.0002(5) -0.0081(5)
U30 U6+ 0.0452(7) 0.0380(7) 0.0322(7) -0.0229(6) 0.0143(5) -0.0102(5)
U31 U6+ 0.0416(7) 0.0376(7) 0.0327(7) -0.0153(6) -0.0121(5) 0.0029(5)
U32 U6+ 0.0403(7) 0.0294(6) 0.0344(7) -0.0149(5) -0.0093(5) 0.0006(5)
U33 U6+ 0.0389(7) 0.0292(6) 0.0325(7) -0.0110(5) -0.0032(5) -0.0041(5)
U34 U6+ 0.0314(6) 0.0287(6) 0.0348(7) -0.0076(5) 0.0010(5) -0.0083(5)
U35 U6+ 0.0348(6) 0.0363(6) 0.0275(6) -0.0159(5) 0.0101(5) -0.0090(5)
U36 U6+ 0.0463(7) 0.0442(7) 0.0280(7) -0.0258(6) -0.0053(5) -0.0035(5)
U37 U6+ 0.0235(6) 0.0412(7) 0.0389(7) -0.0075(5) -0.0024(5) -0.0169(5)
U38 U6+ 0.0337(6) 0.0320(6) 0.0316(7) -0.0016(5) -0.0024(5) -0.0072(5)
U39 U6+ 0.0489(7) 0.0444(7) 0.0281(7) -0.0285(6) 0.0027(5) -0.0064(5)
U40 U6+ 0.0447(7) 0.0392(7) 0.0375(7) -0.0235(6) -0.0101(6) 0.0023(5)
U41 U6+ 0.0421(7) 0.0308(6) 0.0400(7) -0.0130(5) -0.0004(6) -0.0022(5)
U42 U6+ 0.0406(7) 0.0271(6) 0.0412(7) -0.0082(5) -0.0070(6) -0.0007(5)
U43 U6+ 0.0354(7) 0.0477(8) 0.0667(9) -0.0237(6) -0.0230(6) 0.0137(6)
U44 U6+ 0.0401(7) 0.0334(6) 0.0383(7) -0.0126(5) -0.0075(6) 0.0021(5)
U45 U6+ 0.0238(6) 0.0412(7) 0.0630(9) -0.0078(5) 0.0139(6) 0.0058(6)
P1 P5+ 0.033(4) 0.028(4) 0.030(4) -0.011(4) 0.006(4) -0.011(3)
P2 P5+ 0.023(4) 0.036(5) 0.049(5) -0.004(4) -0.008(4) -0.018(4)
P3 P5+ 0.037(5) 0.035(5) 0.026(4) -0.005(4) -0.004(4) -0.006(4)
P4 P5+ 0.040(5) 0.039(5) 0.030(5) -0.019(4) 0.002(4) -0.004(4)
P5 P5+ 0.034(4) 0.029(4) 0.035(5) -0.012(4) 0.002(4) -0.008(4)
P6 P5+ 0.051(5) 0.054(5) 0.036(5) -0.028(4) 0.011(4) -0.019(4)
P7 P5+ 0.049(5) 0.043(5) 0.044(5) -0.023(4) 0.000(4) -0.003(4)
P8 P5+ 0.049(5) 0.053(5) 0.047(6) -0.011(4) -0.006(4) -0.013(4)
P9 P5+ 0.034(5) 0.042(5) 0.046(5) -0.002(4) -0.003(4) -0.021(4)
P10 P5+ 0.037(5) 0.054(5) 0.046(5) -0.023(4) -0.010(4) 0.000(4)
P11 P5+ 0.053(5) 0.043(5) 0.040(5) -0.020(4) -0.008(4) -0.004(4)
P12 P5+ 0.055(5) 0.046(5) 0.047(5) -0.027(4) -0.008(4) -0.011(4)
P13 P5+ 0.036(5) 0.043(5) 0.055(6) 0.000(4) -0.003(4) -0.017(4)
P14 P5+ 0.047(5) 0.063(6) 0.042(5) -0.031(5) -0.006(4) -0.002(4)
P15 P5+ 0.055(7) 0.091(8) 0.126(10) -0.023(6) 0.000(7) -0.013(7)
P16 P5+ 0.048(6) 0.109(9) 0.091(9) -0.018(6) -0.011(6) 0.001(7)
P17 P5+ 0.023(4) 0.024(4) 0.026(4) -0.003(3) -0.002(3) -0.006(3)
P18 P5+ 0.020(4) 0.020(4) 0.034(4) -0.004(3) 0.004(3) -0.011(3)
P19 P5+ 0.028(4) 0.023(4) 0.020(4) -0.006(3) 0.003(3) -0.001(3)
P20 P5+ 0.028(4) 0.023(4) 0.021(4) -0.005(3) 0.004(3) -0.005(3)
P21 P5+ 0.023(4) 0.023(4) 0.021(4) -0.005(3) 0.000(3) -0.007(3)
P22 P5+ 0.035(5) 0.035(5) 0.046(5) -0.014(4) -0.005(4) -0.013(4)
P23 P5+ 0.026(4) 0.022(4) 0.019(4) -0.008(3) 0.003(3) -0.008(3)
P24 P5+ 0.024(4) 0.022(4) 0.037(5) -0.008(3) 0.008(3) -0.012(3)
P25 P5+ 0.040(5) 0.040(5) 0.040(5) -0.021(4) 0.012(4) -0.013(4)
P26 P5+ 0.028(4) 0.036(5) 0.049(5) -0.012(4) -0.001(4) -0.019(4)
P27 P5+ 0.021(4) 0.025(4) 0.023(4) -0.013(3) 0.003(3) -0.004(3)
P28 P5+ 0.021(4) 0.028(4) 0.022(4) -0.002(3) -0.003(3) -0.007(3)
P29 P5+ 0.033(4) 0.028(4) 0.022(4) -0.017(3) 0.007(3) -0.003(3)
P30 P5+ 0.030(4) 0.028(4) 0.030(4) -0.012(3) 0.001(3) -0.012(3)
P31 P5+ 0.052(5) 0.046(5) 0.051(6) -0.024(4) 0.003(4) -0.018(4)
P32 P5+ 0.036(5) 0.043(5) 0.035(5) -0.011(4) -0.005(4) -0.013(4)
P33 P5+ 0.044(5) 0.030(4) 0.037(5) -0.001(4) -0.010(4) -0.004(4)
P34 P5+ 0.045(5) 0.025(4) 0.036(5) -0.008(4) -0.005(4) -0.005(4)
P35 P5+ 0.033(4) 0.025(4) 0.034(5) -0.009(4) 0.001(4) -0.001(4)
P36 P5+ 0.042(5) 0.035(5) 0.034(5) -0.011(4) -0.007(4) -0.003(4)
P37 P5+ 0.032(4) 0.044(5) 0.037(5) -0.019(4) -0.004(4) -0.010(4)
P38 P5+ 0.019(4) 0.028(4) 0.044(5) -0.001(3) -0.003(4) -0.010(4)
P39 P5+ 0.046(5) 0.041(5) 0.030(5) -0.028(4) 0.008(4) -0.004(4)
P40 P5+ 0.034(4) 0.025(4) 0.039(5) -0.013(4) 0.005(4) -0.006(4)
P41 P5+ 0.032(4) 0.023(4) 0.031(5) -0.007(3) 0.004(4) -0.012(3)
P42 P5+ 0.040(5) 0.043(5) 0.025(4) -0.026(4) 0.002(4) -0.005(4)
P43 P5+ 0.032(4) 0.036(5) 0.038(5) -0.015(4) 0.004(4) -0.005(4)
P44 P5+ 0.068(6) 0.051(6) 0.044(6) -0.011(5) -0.016(5) -0.003(5)
P45 P5+ 0.033(4) 0.025(4) 0.026(4) -0.008(3) 0.001(3) -0.001(3)
P46 P5+ 0.034(4) 0.041(5) 0.036(5) -0.016(4) 0.008(4) -0.012(4)
Na1 Na1+ 0.029(6) 0.043(6) 0.038(7) -0.010(5) 0.008(5) -0.017(5)
Na2 Na1+ 0.043(6) 0.039(6) 0.040(7) -0.025(5) -0.015(5) -0.003(5)
Na3 Na1+ 0.033(6) 0.035(6) 0.024(6) -0.015(5) 0.002(5) -0.007(5)
Na4 Na1+ 0.048(7) 0.050(7) 0.032(6) -0.027(6) 0.008(5) -0.017(5)
Na5 Na1+ 0.034(6) 0.033(6) 0.041(7) -0.004(5) 0.000(5) -0.018(5)
Na6 Na1+ 0.028(6) 0.048(7) 0.053(7) -0.009(5) -0.003(5) -0.015(6)
Na7 Na1+ 0.057(7) 0.064(8) 0.039(7) -0.008(6) 0.003(6) -0.019(6)
Na8 Na1+ 0.037(6) 0.062(7) 0.039(7) -0.015(6) 0.008(5) -0.015(6)
Na9 Na1+ 0.047(7) 0.068(8) 0.027(6) -0.010(6) -0.008(5) -0.011(6)
Na10 Na1+ 0.066(8) 0.038(6) 0.028(6) -0.028(6) -0.008(5) 0.005(5)
Na11 Na1+ 0.056(7) 0.052(7) 0.048(7) -0.029(6) 0.001(6) -0.021(6)
Na12 Na1+ 0.048(7) 0.045(7) 0.036(7) -0.006(6) 0.010(5) -0.008(5)
Na13 Na1+ 0.061(8) 0.069(8) 0.043(7) -0.030(6) 0.000(6) -0.019(6)
Na14 Na1+ 0.073(9) 0.078(9) 0.059(8) -0.032(7) 0.004(7) -0.021(7)
Na15 Na1+ 0.076(8) 0.052(7) 0.022(6) -0.024(6) -0.011(6) 0.008(5)
Na16 Na1+ 0.049(7) 0.067(8) 0.068(9) -0.026(6) -0.007(6) -0.007(7)
Na17 Na1+ 0.074(9) 0.079(9) 0.080(10) -0.019(8) -0.016(8) 0.015(8)
Na18 Na1+ 0.068(8) 0.063(8) 0.088(10) -0.036(7) 0.021(7) -0.012(7)
Na19 Na1+ 0.089(10) 0.077(9) 0.062(9) -0.010(8) 0.009(7) -0.036(7)
Na20 Na1+ 0.054(8) 0.077(9) 0.087(10) -0.014(7) 0.008(7) -0.011(8)
Na21 Na1+ 0.063(8) 0.080(9) 0.050(8) -0.037(7) -0.006(6) -0.003(7)
Na22 Na1+ 0.038(6) 0.039(6) 0.032(6) -0.021(5) 0.009(5) -0.020(5)
#End of TTdata_422409-ICSD