
#(C) 2019 by FIZ Karlsruhe - Leibniz Institute for Information Infrastructure.  All rights reserved.
data_422540-ICSD
_database_code_ICSD 422540
_audit_creation_date 2012-02-01
_audit_update_record 2013-08-01
_chemical_name_systematic 'Cadmium sodium nitrate azide (7/4/12/6)'
_chemical_formula_structural 'Cd7 Na4 (N O3)12 (N3)6'
_chemical_formula_sum 'Cd7 N30 Na4 O36'
_exptl_crystal_density_diffrn 2.37
_cell_measurement_temperature 293.
_publ_section_title

;
A 3D nitrate-bridging heterometal-azido inorganic polymer containing Cd8 cube:
synthesis, structure, topology and fluorescence
;
loop_
_citation_id
_citation_journal_full
_citation_year
_citation_journal_volume
_citation_page_first
_citation_page_last
_citation_journal_id_ASTM
primary 'Bulletin of the Korean Chemical Society' 2011 32 1769 1772 BKCSDE
loop_
_publ_author_name
'Luan, Feng'
'Xu, Ling'
'Gao, Yuan'
'Liu, Bing'
_cell_length_a 13.8066(11)
_cell_length_b 13.8066(11)
_cell_length_c 13.8066(11)
_cell_angle_alpha 90.
_cell_angle_beta 90.
_cell_angle_gamma 90.
_cell_volume 2631.84
_cell_formula_units_Z 2
_symmetry_space_group_name_H-M 'I -4 3 m'
_symmetry_Int_Tables_number 217
_refine_ls_R_factor_all 0.0809
loop_
_symmetry_equiv_pos_site_id
_symmetry_equiv_pos_as_xyz
1 '-z, -y, x'
2 '-y, -x, z'
3 '-x, -z, y'
4 '-z, -x, y'
5 '-y, -z, x'
6 '-x, -y, z'
7 '-z, y, -x'
8 '-y, x, -z'
9 '-x, z, -y'
10 '-z, x, -y'
11 '-y, z, -x'
12 '-x, y, -z'
13 'z, -y, -x'
14 'y, -x, -z'
15 'x, -z, -y'
16 'z, -x, -y'
17 'y, -z, -x'
18 'x, -y, -z'
19 'z, y, x'
20 'y, x, z'
21 'x, z, y'
22 'z, x, y'
23 'y, z, x'
24 'x, y, z'
25 '-z+1/2, -y+1/2, x+1/2'
26 '-y+1/2, -x+1/2, z+1/2'
27 '-x+1/2, -z+1/2, y+1/2'
28 '-z+1/2, -x+1/2, y+1/2'
29 '-y+1/2, -z+1/2, x+1/2'
30 '-x+1/2, -y+1/2, z+1/2'
31 '-z+1/2, y+1/2, -x+1/2'
32 '-y+1/2, x+1/2, -z+1/2'
33 '-x+1/2, z+1/2, -y+1/2'
34 '-z+1/2, x+1/2, -y+1/2'
35 '-y+1/2, z+1/2, -x+1/2'
36 '-x+1/2, y+1/2, -z+1/2'
37 'z+1/2, -y+1/2, -x+1/2'
38 'y+1/2, -x+1/2, -z+1/2'
39 'x+1/2, -z+1/2, -y+1/2'
40 'z+1/2, -x+1/2, -y+1/2'
41 'y+1/2, -z+1/2, -x+1/2'
42 'x+1/2, -y+1/2, -z+1/2'
43 'z+1/2, y+1/2, x+1/2'
44 'y+1/2, x+1/2, z+1/2'
45 'x+1/2, z+1/2, y+1/2'
46 'z+1/2, x+1/2, y+1/2'
47 'y+1/2, z+1/2, x+1/2'
48 'x+1/2, y+1/2, z+1/2'
loop_
_atom_type_symbol
_atom_type_oxidation_number
Cd2+ 2
Na1+ 1
N0+ -0.5
N0+ 0
N0+ -0.5
N5+ 5
O2- -2
loop_
_atom_site_label
_atom_site_type_symbol
_atom_site_symmetry_multiplicity
_atom_site_Wyckoff_symbol
_atom_site_fract_x
_atom_site_fract_y
_atom_site_fract_z
_atom_site_B_iso_or_equiv
_atom_site_occupancy
_atom_site_attached_hydrogens
Cd1 Cd2+ 8 c 0.11754(3) 0.11754(3) 0.88246(3) 0.04460(17) 1 0
Cd2 Cd2+ 8 c 0.11880(4) 0.11880(4) 1.11880(4) 0.0361(2) 0.75 0
Na1 Na1+ 8 c 0.2481(2) 0.2481(2) 0.7519(2) 0.0175(4) 1 0
N1 N0+ 12 e 0. 0. 0.6508(5) 0.077(2) 1 0
N2 N0+ 12 e 0. 0. 0.7320(5) 0.0453(10) 1 0
N3 N0+ 12 e 0. 0. 0.8265(3) 0.0252(8) 1 0
N4 N5+ 24 g 0.23765(18) 0.4913(4) 0.76235(18) 0.0289(7) 1 0
O1 O2- 24 g 0.26543(19) 0.5755(3) 0.73457(19) 0.0376(8) 1 0
O2 O2- 24 g 0.26963(17) 0.4153(2) 0.73037(17) 0.0342(9) 1 0
O3 O2- 24 g 0.1588(2) 0.5026(6) 0.8412(2) 0.0984(16) 1 0
loop_
_atom_site_aniso_label
_atom_site_aniso_type_symbol
_atom_site_aniso_U_11
_atom_site_aniso_U_22
_atom_site_aniso_U_33
_atom_site_aniso_U_12
_atom_site_aniso_U_13
_atom_site_aniso_U_23
Cd1 Cd2+ 0.04460(17) 0.04460(17) 0.04460(17) -0.01066(16) 0.01066(16)
0.01066(16)
Cd2 Cd2+ 0.0361(2) 0.0361(2) 0.0361(2) -0.0076(2) -0.0076(2) -0.0076(2)
Na1 Na1+ 0.0175(4) 0.0175(4) 0.0175(4) 0.0012(5) -0.0012(5) -0.0012(5)
N1 N0+ 0.101(3) 0.101(3) 0.028(3) 0.044(7) 0. 0.
N2 N0+ 0.0448(12) 0.0448(12) 0.0461(18) 0.0007(16) 0. 0.
N3 N0+ 0.0251(10) 0.0251(10) 0.0253(14) -0.0079(16) 0. 0.
N4 N5+ 0.0304(9) 0.0259(14) 0.0304(9) 0.0019(9) -0.0026(11) -0.0019(9)
O1 O2- 0.0396(10) 0.0336(14) 0.0396(10) 0.0019(8) 0.0128(12) -0.0019(8)
O2 O2- 0.0426(12) 0.0174(15) 0.0426(12) 0.0126(9) 0.0140(16) -0.0126(9)
O3 O2- 0.0862(17) 0.123(4) 0.0862(17) -0.0495(18) 0.028(2) 0.0495(18)
#End of TTdata_422540-ICSD