
#(C) 2019 by FIZ Karlsruhe - Leibniz Institute for Information Infrastructure.  All rights reserved.
data_422707-ICSD
_database_code_ICSD 422707
_audit_creation_date 2012-02-01
_audit_update_record 2015-02-01
_chemical_name_systematic 'Potassium sodium molybdenum dioxide tetrafluoride'
_chemical_formula_structural 'K Na Mo O2 F4'
_chemical_formula_sum 'F4 K1 Mo1 Na1 O2'
_chemical_name_structure_type KNaMoF4O2
_exptl_crystal_density_diffrn 3.04
_cell_measurement_temperature 100.
_publ_section_title

;
New layered oxide-fluoride perovskites: K Na Nb O F5 and K Na M O2 F4 (M =
Mo(6+), W(6+))
;
loop_
_citation_id
_citation_journal_full
_citation_year
_citation_journal_volume
_citation_page_first
_citation_page_last
_citation_journal_id_ASTM
primary Crystals 2011 1 3 14 CRYSBC
loop_
_publ_author_name
'Pinlac, R.A.F.'
'Stern, C.L.'
'Poeppelmeier, K.R.'
_cell_length_a 5.8600(2)
_cell_length_b 5.8600(2)
_cell_length_c 8.45960(10)
_cell_angle_alpha 90.
_cell_angle_beta 90.
_cell_angle_gamma 90.
_cell_volume 290.5
_cell_formula_units_Z 2
_symmetry_space_group_name_H-M 'P 4/n m m Z'
_symmetry_Int_Tables_number 129
_refine_ls_R_factor_all 0.0163
loop_
_symmetry_equiv_pos_site_id
_symmetry_equiv_pos_as_xyz
1 'y+1/2, x+1/2, -z'
2 '-y, x+1/2, -z'
3 'y+1/2, -x, -z'
4 '-y, -x, -z'
5 'x+1/2, y+1/2, -z'
6 '-x, y+1/2, -z'
7 'x+1/2, -y, -z'
8 '-x, -y, -z'
9 '-y+1/2, -x+1/2, z'
10 'y, -x+1/2, z'
11 '-y+1/2, x, z'
12 'y, x, z'
13 '-x+1/2, -y+1/2, z'
14 'x, -y+1/2, z'
15 '-x+1/2, y, z'
16 'x, y, z'
loop_
_atom_type_symbol
_atom_type_oxidation_number
Na1+ 1
K1+ 1
Mo6+ 6
O2- -2
F1- -1
loop_
_atom_site_label
_atom_site_type_symbol
_atom_site_symmetry_multiplicity
_atom_site_Wyckoff_symbol
_atom_site_fract_x
_atom_site_fract_y
_atom_site_fract_z
_atom_site_B_iso_or_equiv
_atom_site_occupancy
_atom_site_attached_hydrogens
Na1 Na1+ 2 c -0.25 0.75 0.76122(9) 0.00995(13) 1 0
K1 K1+ 2 b 0.25 0.75 0.5 0.00995(7) 1 0
Mo1 Mo6+ 2 c 0.25 0.25 0.764460(17) 0.01086(5) 1 0
O1 O2- 2 c 0.25 0.25 0.96208(19) 0.0216(3) 1 0
O2 O2- 2 c 0.25 0.25 0.51492(14) 0.0164(2) 1 0
F1 F1- 8 j 0.02272(8) 0.47728(8) 0.72890(9) 0.01879(13) 1 0
loop_
_atom_site_aniso_label
_atom_site_aniso_type_symbol
_atom_site_aniso_U_11
_atom_site_aniso_U_22
_atom_site_aniso_U_33
_atom_site_aniso_U_12
_atom_site_aniso_U_13
_atom_site_aniso_U_23
Na1 Na1+ 0.0110(2) 0.0110(2) 0.0078(3) 0. 0. 0.
K1 K1+ 0.00994(9) 0.00994(9) 0.00996(13) 0. 0. 0.
Mo1 Mo6+ 0.01372(6) 0.01372(6) 0.00512(7) 0. 0. 0.
O1 O2- 0.0288(5) 0.0288(5) 0.0073(5) 0. 0. 0.
O2 O2- 0.0217(4) 0.0217(4) 0.0058(4) 0. 0. 0.
F1 F1- 0.01270(16) 0.01270(16) 0.0310(4) 0.0036(2) 0.00137(16) -0.00137(16)
#End of TTdata_422707-ICSD