
#(C) 2019 by FIZ Karlsruhe - Leibniz Institute for Information Infrastructure.  All rights reserved.
data_422714-ICSD
_database_code_ICSD 422714
_audit_creation_date 2013-02-01
_chemical_name_systematic 'Disodium tin tris(disulfate(VI))'
_chemical_formula_structural 'Na2 (Sn (S2 O7)3)'
_chemical_formula_sum 'Na2 O21 S6 Sn1'
_chemical_name_structure_type Cs2Si(S2O7)3
_exptl_crystal_density_diffrn 2.57
_cell_measurement_temperature 153.
_publ_section_title

;
New compounds bearing [M (S2 O7)3](2-) anions (M = Si, Ge, Sn): Syntheses and
characterization of A2 [Si (S2 O7)3] (A = Na, K, Rb), A2 [Ge (S2 O7)3] (A =
Li, Na, K, Rb, Cs), A2 [Sn (S2 O7)3] (A = Na, K), and the unique germanate Hg2
[Ge (S2 O7)3] Cl2 with cationic [Hg Cl2/2]+ chains
;
loop_
_citation_id
_citation_journal_full
_citation_year
_citation_journal_volume
_citation_page_first
_citation_page_last
_citation_journal_id_ASTM
primary 'Zeitschrift fuer Anorganische und Allgemeine Chemie (1950) (DE)' 2012
638 2053 2061 ZAACAB
loop_
_publ_author_name
'Logemann, C.'
'Witt, J.'
'Gunzelmann, D.'
'Senker, J.'
'Wickleder, M.S.'
_cell_length_a 15.4834(7)
_cell_length_b 15.4834(7)
_cell_length_c 12.9277(5)
_cell_angle_alpha 90.
_cell_angle_beta 90.
_cell_angle_gamma 120.
_cell_volume 2684.01
_cell_formula_units_Z 6
_symmetry_space_group_name_H-M 'P -3'
_symmetry_Int_Tables_number 147
_refine_ls_R_factor_all 0.0336
loop_
_symmetry_equiv_pos_site_id
_symmetry_equiv_pos_as_xyz
1 'x-y, x, -z'
2 'y, -x+y, -z'
3 '-x, -y, -z'
4 '-x+y, -x, z'
5 '-y, x-y, z'
6 'x, y, z'
loop_
_atom_type_symbol
_atom_type_oxidation_number
Sn4+ 4
S6+ 6
O2- -2
Na1+ 1
S6+ 6
O2- -2
loop_
_atom_site_label
_atom_site_type_symbol
_atom_site_symmetry_multiplicity
_atom_site_Wyckoff_symbol
_atom_site_fract_x
_atom_site_fract_y
_atom_site_fract_z
_atom_site_B_iso_or_equiv
_atom_site_occupancy
_atom_site_attached_hydrogens
Sn1 Sn4+ 2 d 0.3333 0.6667 0.77004(4) 0.02177(12) 1 0
Sn2 Sn4+ 2 c 0. 0. 0.74209(4) 0.02269(13) 1 0
Sn3 Sn4+ 2 d 0.3333 0.6667 0.25867(4) 0.02188(13) 1 0
S1 S6+ 6 g 0.22939(8) 0.45061(8) 0.13761(9) 0.0247(2) 1 0
S2 S6+ 6 g 0.17894(8) 0.45275(7) 0.34845(9) 0.0245(2) 1 0
O1 O2- 6 g 0.3160(2) 0.5513(2) 0.1674(2) 0.0257(6) 1 0
O2 O2- 6 g 0.1468(2) 0.4278(2) 0.2283(2) 0.0265(6) 1 0
O3 O2- 6 g 0.2229(2) 0.5650(2) 0.3515(3) 0.0278(6) 1 0
O4 O2- 6 g 0.2516(3) 0.4243(2) 0.3685(3) 0.0341(7) 1 0
O5 O2- 6 g 0.2582(2) 0.3775(2) 0.1448(3) 0.0344(7) 1 0
Na1 Na1+ 6 g 0.34114(12) 0.31011(13) 0.04857(14) 0.0273(4) 1 0
Na2 Na1+ 6 g 0.32536(12) 0.35150(13) 0.46115(14) 0.0270(4) 1 0
S3 S6+ 6 g 0.11430(8) 0.22330(8) 0.63260(9) 0.0258(2) 1 0
S4 S6+ 6 g 0.15524(8) 0.20742(8) 0.84513(9) 0.0272(2) 1 0
S5 S6+ 6 g 0.12003(8) 0.57670(8) 0.64545(9) 0.0259(2) 1 0
S6 S6+ 6 g 0.11745(8) 0.58715(8) 0.86369(9) 0.0259(2) 1 0
O6 O2- 6 g 0.1922(2) 0.2431(2) 0.7277(2) 0.0288(7) 1 0
O7 O2- 6 g 0.0294(2) 0.1179(2) 0.6508(3) 0.0282(6) 1 0
O8 O2- 6 g 0.1113(2) 0.0960(2) 0.8369(2) 0.0288(6) 1 0
O9 O2- 6 g 0.1803(2) 0.4559(2) 0.0473(2) 0.0354(8) 1 0
O10 O2- 6 g 0.0994(2) 0.4877(2) 0.8600(3) 0.0337(7) 1 0
O11 O2- 6 g 0.0870(2) 0.6101(2) 0.7512(2) 0.0288(7) 1 0
O12 O2- 6 g 0.1713(2) 0.2299(2) 0.5443(3) 0.0365(8) 1 0
O13 O2- 6 g 0.0791(2) 0.2919(2) 0.6435(3) 0.0366(8) 1 0
O14 O2- 6 g 0.0861(2) 0.4061(2) 0.4015(3) 0.0335(7) 1 0
O15 O2- 6 g 0.2162(2) 0.5794(2) 0.6744(2) 0.0259(6) 1 0
O16 O2- 6 g 0.2279(2) 0.6634(2) 0.8668(2) 0.0284(6) 1 0
O17 O2- 6 g 0.2453(2) 0.2480(2) 0.9011(3) 0.0368(8) 1 0
O18 O2- 6 g 0.0827(2) 0.2341(2) 0.8703(3) 0.0370(7) 1 0
O19 O2- 6 g 0.0447(2) 0.4775(2) 0.6239(3) 0.0361(7) 1 0
O20 O2- 6 g 0.1366(2) 0.6538(3) 0.5754(3) 0.0382(7) 1 0
O21 O2- 6 g 0.0657(2) 0.6129(3) 0.9355(3) 0.0367(7) 1 0
loop_
_atom_site_aniso_label
_atom_site_aniso_type_symbol
_atom_site_aniso_U_11
_atom_site_aniso_U_22
_atom_site_aniso_U_33
_atom_site_aniso_U_12
_atom_site_aniso_U_13
_atom_site_aniso_U_23
Sn1 Sn4+ 0.02221(15) 0.02221(15) 0.0209(2) 0.01111(7) 0. 0.
Sn2 Sn4+ 0.02261(15) 0.02261(15) 0.0228(3) 0.01131(8) 0. 0.
Sn3 Sn4+ 0.02164(15) 0.02164(15) 0.0224(3) 0.01082(7) 0. 0.
S1 S6+ 0.0254(5) 0.0248(5) 0.0215(5) 0.0108(4) 0.0009(4) -0.0007(4)
S2 S6+ 0.0261(5) 0.0250(5) 0.0211(5) 0.0117(4) 0.0021(4) 0.0023(4)
O1 O2- 0.0243(14) 0.0244(14) 0.0267(17) 0.0109(12) 0.0022(12) -0.0021(12)
O2 O2- 0.0234(14) 0.0279(15) 0.0245(16) 0.0102(12) -0.0015(12) -0.0011(12)
O3 O2- 0.0315(15) 0.0253(14) 0.0258(17) 0.0138(12) 0.0064(13) 0.0013(12)
O4 O2- 0.0413(18) 0.0397(18) 0.0279(17) 0.0252(15) -0.0021(14) 0.0015(14)
O5 O2- 0.0411(17) 0.0298(15) 0.0350(18) 0.0198(14) 0.0081(15) 0.0004(14)
Na1 Na1+ 0.0286(9) 0.0278(8) 0.0255(9) 0.0140(7) -0.0012(6) -0.0015(7)
Na2 Na1+ 0.0289(9) 0.0291(8) 0.0251(10) 0.0162(8) -0.0012(7) 0.0005(7)
S3 S6+ 0.0271(5) 0.0245(5) 0.0245(5) 0.0119(4) -0.0003(4) 0.0015(4)
S4 S6+ 0.0285(5) 0.0270(5) 0.0239(5) 0.0121(4) -0.0029(4) -0.0031(4)
S5 S6+ 0.0237(5) 0.0291(5) 0.0231(5) 0.0119(4) -0.0023(4) -0.0005(4)
S6 S6+ 0.0252(5) 0.0304(5) 0.0231(5) 0.0147(4) 0.0014(4) 0.0013(4)
O6 O2- 0.0245(14) 0.0319(15) 0.0275(17) 0.0124(13) -0.0011(12) -0.0004(13)
O7 O2- 0.0271(14) 0.0250(14) 0.0302(17) 0.0113(12) -0.0031(13) 0.0028(12)
O8 O2- 0.0301(15) 0.0275(15) 0.0282(17) 0.0138(12) -0.0069(12) -0.0012(12)
O9 O2- 0.0311(16) 0.0409(18) 0.0250(17) 0.0111(14) -0.0025(13) 0.0016(13)
O10 O2- 0.0354(16) 0.0331(16) 0.0296(17) 0.0149(13) 0.0009(14) 0.0066(14)
O11 O2- 0.0339(16) 0.0337(16) 0.0251(16) 0.0217(14) -0.0010(13) -0.0003(13)
O12 O2- 0.0324(17) 0.0401(18) 0.0289(18) 0.0121(14) 0.0023(13) 0.0003(14)
O13 O2- 0.0419(18) 0.0315(16) 0.041(2) 0.0218(15) -0.0090(16) -0.0052(15)
O14 O2- 0.0312(16) 0.0322(16) 0.0299(17) 0.0104(14) 0.0066(13) 0.0033(13)
O15 O2- 0.0242(14) 0.0269(14) 0.0251(15) 0.0116(12) -0.0037(11) -0.0041(12)
O16 O2- 0.0271(14) 0.0311(15) 0.0256(16) 0.0137(12) 0.0021(12) -0.0035(13)
O17 O2- 0.0320(16) 0.0387(18) 0.0323(18) 0.0121(14) -0.0078(13) -0.0037(14)
O18 O2- 0.0435(18) 0.0370(17) 0.0335(19) 0.0223(15) -0.0016(15) -0.0052(15)
O19 O2- 0.0279(15) 0.0375(17) 0.0397(19) 0.0140(14) -0.0046(14) -0.0089(15)
O20 O2- 0.0355(17) 0.0470(19) 0.0309(18) 0.0197(15) 0.0016(14) 0.0084(15)
O21 O2- 0.0341(16) 0.049(2) 0.0310(18) 0.0239(15) 0.0053(14) -0.0015(15)
#End of TTdata_422714-ICSD