
#(C) 2019 by FIZ Karlsruhe - Leibniz Institute for Information Infrastructure.  All rights reserved.
data_422910-ICSD
_database_code_ICSD 422910
_audit_creation_date 2012-02-01
_chemical_name_systematic 'Sodium gold bis(disulfate)'
_chemical_formula_structural 'Na (Au (S2 O7)2)'
_chemical_formula_sum 'Au1 Na1 O14 S4'
_exptl_crystal_density_diffrn 3.33
_cell_measurement_temperature 153.
_publ_section_title

;
The unique bis-(disulfato)-aurate anion [Au (S2 O7)2]-: synthesis and
characterization of Li [Au (S2 O7)2] and Na [Au (S2 O7)2]
;
loop_
_citation_id
_citation_journal_full
_citation_year
_citation_journal_volume
_citation_page_first
_citation_page_last
_citation_journal_id_ASTM
primary 'Inorganic Chemistry' 2011 50 11111 11116 INOCAJ
loop_
_publ_author_name
'Logemann, C.'
'Wickleder, M.S.'
_cell_length_a 5.3331(3)
_cell_length_b 11.9338(7)
_cell_length_c 9.0767(5)
_cell_angle_alpha 90.
_cell_angle_beta 98.548(3)
_cell_angle_gamma 90.
_cell_volume 571.26
_cell_formula_units_Z 2
_symmetry_space_group_name_H-M 'P 1 21/n 1'
_symmetry_Int_Tables_number 14
_refine_ls_R_factor_all 0.0123
loop_
_symmetry_equiv_pos_site_id
_symmetry_equiv_pos_as_xyz
1 '-x+1/2, y+1/2, -z+1/2'
2 '-x, -y, -z'
3 'x+1/2, -y+1/2, z+1/2'
4 'x, y, z'
loop_
_atom_type_symbol
_atom_type_oxidation_number
Au3+ 3
S6+ 6
O2- -2
Na1+ 1
loop_
_atom_site_label
_atom_site_type_symbol
_atom_site_symmetry_multiplicity
_atom_site_Wyckoff_symbol
_atom_site_fract_x
_atom_site_fract_y
_atom_site_fract_z
_atom_site_B_iso_or_equiv
_atom_site_occupancy
_atom_site_attached_hydrogens
Au1 Au3+ 2 a 0.5 0.5 0.5 0.01071(6) 1 0
S1 S6+ 4 e 0.95942(10) 0.46305(5) 0.73941(6) 0.01286(11) 1 0
S2 S6+ 4 e 0.72922(11) 0.27306(5) 0.58324(7) 0.01647(12) 1 0
O1 O2- 4 e 1.2164(3) 0.49686(13) 0.7748(2) 0.0182(4) 1 0
O2 O2- 4 e 0.9792(3) 0.34329(14) 0.66037(18) 0.0152(3) 1 0
O3 O2- 4 e 0.5625(3) 0.26149(16) 0.6894(2) 0.0261(4) 1 0
O4 O2- 4 e 0.8354(3) 0.53768(15) 0.61303(19) 0.0161(3) 1 0
O5 O2- 4 e 0.8085(3) 0.45008(16) 0.85436(19) 0.0213(4) 1 0
O6 O2- 4 e 0.6236(3) 0.34916(14) 0.45390(18) 0.0165(3) 1 0
O7 O2- 4 e 0.8391(4) 0.17892(15) 0.5233(2) 0.0277(4) 1 0
Na1 Na1+ 2 b 1. 0. 0.5 0.0138(3) 1 0
loop_
_atom_site_aniso_label
_atom_site_aniso_type_symbol
_atom_site_aniso_U_11
_atom_site_aniso_U_22
_atom_site_aniso_U_33
_atom_site_aniso_U_12
_atom_site_aniso_U_13
_atom_site_aniso_U_23
Au1 Au3+ 0.01268(7) 0.00840(8) 0.01029(7) 0.00166(4) -0.00075(4) 0.00017(4)
S1 S6+ 0.0122(2) 0.0143(3) 0.0115(2) 0.00176(19) 0.00006(17) -0.0004(2)
S2 S6+ 0.0187(3) 0.0095(3) 0.0200(3) 0.00207(19) -0.00073(19) 0.0013(2)
O1 O2- 0.0142(8) 0.0215(10) 0.0173(9) -0.0001(6) -0.0030(6) 0.0018(6)
O2 O2- 0.0140(7) 0.0132(8) 0.0178(8) 0.0039(6) 0.0006(6) -0.0008(6)
O3 O2- 0.0264(9) 0.0259(10) 0.0265(9) -0.0069(7) 0.0057(7) 0.0065(8)
O4 O2- 0.0155(8) 0.0126(8) 0.0184(8) -0.0001(6) -0.0036(6) 0.0019(7)
O5 O2- 0.0217(9) 0.0268(10) 0.0164(8) 0.0014(7) 0.0065(6) -0.0031(7)
O6 O2- 0.0214(8) 0.0109(8) 0.0158(8) 0.0054(6) -0.0016(6) -0.0022(6)
O7 O2- 0.0327(10) 0.0133(9) 0.0343(11) 0.0094(7) -0.0046(8) -0.0053(8)
Na1 Na1+ 0.0151(6) 0.0136(7) 0.0128(6) 0.0028(4) 0.0018(5) 0.0004(4)
#End of TTdata_422910-ICSD