
#(C) 2019 by FIZ Karlsruhe - Leibniz Institute for Information Infrastructure.  All rights reserved.
data_422976-ICSD
_database_code_ICSD 422976
_audit_creation_date 2015-02-01
_chemical_name_systematic
'Silver sodium aluminium arsenic oxide (1.6/1.4/2/3/12)'
_chemical_formula_structural 'Ag1.6 Na1.4 Al2 As3 O12'
_chemical_formula_sum 'Ag1.6 Al2 As3 Na1.4 O12'
_exptl_crystal_density_diffrn 4.65
_cell_measurement_temperature 298.
_publ_section_title 'Private communication'
loop_
_citation_id
_citation_journal_full
_citation_year
_citation_journal_volume
_citation_page_first
_citation_page_last
_citation_journal_id_ASTM
primary 'Private Communication' 2011 2011 1 1 PRICO6
loop_
_publ_author_name
'Fakhar Bourguiba, Noura'
'Guesmi, Abderrahmen'
'Ouerfelli, Najoua'
'Mazza, Daniele'
'Zid, M. Faouzi'
'Driss, Ahmed'
_cell_length_a 13.3263(10)
_cell_length_b 13.3263(10)
_cell_length_c 18.810(2)
_cell_angle_alpha 90.
_cell_angle_beta 90.
_cell_angle_gamma 120.
_cell_volume 2892.93
_cell_formula_units_Z 12
_symmetry_space_group_name_H-M 'R -3 c H'
_symmetry_Int_Tables_number 167
_refine_ls_R_factor_all 0.0219
loop_
_symmetry_equiv_pos_site_id
_symmetry_equiv_pos_as_xyz
1 'x-y, -y, -z+1/2'
2 '-x, -x+y, -z+1/2'
3 'y, x, -z+1/2'
4 'x-y, x, -z'
5 'y, -x+y, -z'
6 '-x, -y, -z'
7 '-x+y, y, z+1/2'
8 'x, x-y, z+1/2'
9 '-y, -x, z+1/2'
10 '-x+y, -x, z'
11 '-y, x-y, z'
12 'x, y, z'
13 'x-y+2/3, -y+1/3, -z+5/6'
14 '-x+2/3, -x+y+1/3, -z+5/6'
15 'y+2/3, x+1/3, -z+5/6'
16 'x-y+2/3, x+1/3, -z+1/3'
17 'y+2/3, -x+y+1/3, -z+1/3'
18 '-x+2/3, -y+1/3, -z+1/3'
19 '-x+y+2/3, y+1/3, z+5/6'
20 'x+2/3, x-y+1/3, z+5/6'
21 '-y+2/3, -x+1/3, z+5/6'
22 '-x+y+2/3, -x+1/3, z+1/3'
23 '-y+2/3, x-y+1/3, z+1/3'
24 'x+2/3, y+1/3, z+1/3'
25 'x-y+1/3, -y+2/3, -z+1/6'
26 '-x+1/3, -x+y+2/3, -z+1/6'
27 'y+1/3, x+2/3, -z+1/6'
28 'x-y+1/3, x+2/3, -z+2/3'
29 'y+1/3, -x+y+2/3, -z+2/3'
30 '-x+1/3, -y+2/3, -z+2/3'
31 '-x+y+1/3, y+2/3, z+1/6'
32 'x+1/3, x-y+2/3, z+1/6'
33 '-y+1/3, -x+2/3, z+1/6'
34 '-x+y+1/3, -x+2/3, z+2/3'
35 '-y+1/3, x-y+2/3, z+2/3'
36 'x+1/3, y+2/3, z+2/3'
loop_
_atom_type_symbol
_atom_type_oxidation_number
As5+ 5
Al3+ 3
O2- -2
Na1+ 1
Ag1+ 1
loop_
_atom_site_label
_atom_site_type_symbol
_atom_site_symmetry_multiplicity
_atom_site_Wyckoff_symbol
_atom_site_fract_x
_atom_site_fract_y
_atom_site_fract_z
_atom_site_B_iso_or_equiv
_atom_site_occupancy
_atom_site_attached_hydrogens
As1 As5+ 36 f 0.67838(3) 0.15255(3) 0.481139(16) 0.00482(14) 1 0
Al1 Al3+ 6 a 0.6667 0.3333 0.5833 0.0043(5) 1 0
Al2 Al3+ 18 e 0.88696(11) 0.3333 0.5833 0.0042(3) 1 0
O1 O2- 36 f 0.80341(19) 0.3975(2) 0.52762(12) 0.0051(5) 1 0
O2 O2- 36 f 0.6121(2) 0.0067(2) 0.48282(12) 0.0090(5) 1 0
O3 O2- 36 f 0.6988(3) 0.2051(3) 0.39956(12) 0.0150(6) 1 0
O4 O2- 36 f 0.8043(2) 0.1976(2) 0.52634(12) 0.0085(5) 1 0
Na1 Na1+ 6 b 0.6667 0.3333 0.3333 0.0131(7) 1 0
Na2 Na1+ 36 f 0.8852(7) 0.3565(9) 0.3794(5) 0.0088(2) 0.26 0
Na3 Na1+ 18 e 0.9326(18) 0.2659(18) 0.4167 0.0088(2) 0.08 0
Ag1 Ag1+ 36 f 0.89451(15) 0.3462(2) 0.38800(9) 0.0088(2) 0.27 0
Ag2 Ag1+ 36 f 0.89011(17) 0.32813(19) 0.37671(11) 0.0088(2) 0.22 0
Ag3 Ag1+ 36 f 0.9076(6) 0.3107(7) 0.3937(4) 0.0088(2) 0.04 0
loop_
_atom_site_aniso_label
_atom_site_aniso_type_symbol
_atom_site_aniso_U_11
_atom_site_aniso_U_22
_atom_site_aniso_U_33
_atom_site_aniso_U_12
_atom_site_aniso_U_13
_atom_site_aniso_U_23
As1 As5+ 0.0041(2) 0.0037(2) 0.0063(2) 0.00168(14) 0.00079(11) -0.00096(12)
Al1 Al3+ 0.0027(7) 0.0027(7) 0.0077(10) 0.0013(3) 0 0
Al2 Al3+ 0.0024(5) 0.0032(7) 0.0074(6) 0.0016(3) 0.0002(2) 0.0004(5)
O1 O2- 0.0038(11) 0.0033(11) 0.0072(10) 0.0010(10) 0.0008(8) 0.0026(9)
O2 O2- 0.0079(12) 0.0034(12) 0.0133(12) 0.0010(10) -0.0004(9) -0.0016(9)
O3 O2- 0.0224(15) 0.0173(15) 0.0076(11) 0.0115(13) 0.0036(10) 0.0039(10)
O4 O2- 0.0044(12) 0.0059(12) 0.0153(12) 0.0027(10) -0.0021(9) -0.0019(9)
Na1 Na1+ 0.0133(11) 0.0133(11) 0.0126(16) 0.0067(5) 0 0
#End of TTdata_422976-ICSD