
#(C) 2019 by FIZ Karlsruhe - Leibniz Institute for Information Infrastructure.  All rights reserved.
data_423273-ICSD
_database_code_ICSD 423273
_audit_creation_date 2013-08-01
_chemical_name_systematic 'Potassium sodium niobium oxide pentafluoride'
_chemical_formula_structural 'K Na (Nb O F5)'
_chemical_formula_sum 'F5 K1 Na1 Nb1 O1'
_chemical_name_structure_type KNaSnF6
_exptl_crystal_density_diffrn 3.07
_cell_measurement_temperature 296.
_publ_section_title 'Polymorphism of K Na Nb O F5 crystals'
loop_
_citation_id
_citation_journal_full
_citation_year
_citation_journal_volume
_citation_page_first
_citation_page_last
_citation_journal_id_ASTM
primary 'Zhurnal Strukturnoi Khimii' 2012 53 922 926 ZSTKAI
loop_
_publ_author_name
'Vasiliev, A.D.'
'Laptash, N.M.'
_cell_length_a 11.8856(11)
_cell_length_b 5.9261(6)
_cell_length_c 8.1616(8)
_cell_angle_alpha 90.
_cell_angle_beta 90.
_cell_angle_gamma 90.
_cell_volume 574.86
_cell_formula_units_Z 4
_symmetry_space_group_name_H-M 'P n a 21'
_symmetry_Int_Tables_number 33
_refine_ls_R_factor_all 0.0126
loop_
_symmetry_equiv_pos_site_id
_symmetry_equiv_pos_as_xyz
1 'x+1/2, -y+1/2, z'
2 '-x+1/2, y+1/2, z+1/2'
3 '-x, -y, z+1/2'
4 'x, y, z'
loop_
_atom_type_symbol
_atom_type_oxidation_number
Nb5+ 5
K1+ 1
Na1+ 1
F1- -1
O2- -2
loop_
_atom_site_label
_atom_site_type_symbol
_atom_site_symmetry_multiplicity
_atom_site_Wyckoff_symbol
_atom_site_fract_x
_atom_site_fract_y
_atom_site_fract_z
_atom_site_B_iso_or_equiv
_atom_site_occupancy
_atom_site_attached_hydrogens
Nb1 Nb5+ 4 a 0.348624(10) 0.458586(19) 0.35418(2) 0.01524(6) 1 0
K1 K1+ 4 a 0.03667(4) 0.46923(6) 0.11269(6) 0.02561(10) 1 0
Na1 Na1+ 4 a 0.63916(5) 0.54619(10) 0.3613(2) 0.02007(15) 1 0
F1 F1- 4 a 0.50181(8) 0.28612(15) 0.38824(13) 0.0211(2) 1 0
F2 F1- 4 a 0.37144(10) 0.3574(2) 0.13052(13) 0.0272(2) 1 0
F3 F1- 4 a 0.45188(9) 0.71381(16) 0.31928(13) 0.0253(2) 1 0
F4 F1- 4 a 0.36065(11) 0.5346(2) 0.58567(18) 0.0284(3) 1 0
F5 F1- 4 a 0.28858(10) 0.16735(19) 0.41457(14) 0.0296(2) 1 0
O1 O2- 4 a 0.22256(11) 0.5978(2) 0.31653(16) 0.0269(3) 1 0
loop_
_atom_site_aniso_label
_atom_site_aniso_type_symbol
_atom_site_aniso_U_11
_atom_site_aniso_U_22
_atom_site_aniso_U_33
_atom_site_aniso_U_12
_atom_site_aniso_U_13
_atom_site_aniso_U_23
Nb1 Nb5+ 0.01540(8) 0.01641(8) 0.01391(8) -0.00035(4) -0.00075(7) -0.00022(7)
K1 K1+ 0.0354(2) 0.02042(19) 0.0211(2) -0.00225(14) 0.0031(2) 0.00076(14)
Na1 Na1+ 0.0189(3) 0.0225(3) 0.0188(4) -0.0006(2) 0.0003(4) -0.0003(3)
F1 F1- 0.0178(4) 0.0208(4) 0.0247(5) 0.0014(4) -0.0015(4) 0.0033(4)
F2 F1- 0.0339(5) 0.0329(6) 0.0148(5) 0.0042(5) -0.0022(4) -0.0039(4)
F3 F1- 0.0287(5) 0.0187(4) 0.0284(6) -0.0043(4) 0.0011(4) 0.0029(4)
F4 F1- 0.0331(7) 0.0376(8) 0.0147(6) -0.0038(4) 0.0007(5) -0.0027(5)
F5 F1- 0.0272(5) 0.0252(5) 0.0362(6) -0.0094(4) -0.0030(5) 0.0068(4)
O1 O2- 0.0230(6) 0.0292(5) 0.0286(8) 0.0086(5) -0.0056(5) -0.0038(5)
#End of TTdata_423273-ICSD