
#(C) 2019 by FIZ Karlsruhe - Leibniz Institute for Information Infrastructure.  All rights reserved.
data_423598-ICSD
_database_code_ICSD 423598
_audit_creation_date 2012-08-01
_chemical_name_systematic 'Sodium nickel trifluoride'
_chemical_formula_structural 'Na Ni F3'
_chemical_formula_sum 'F3 Na1 Ni1'
_chemical_name_structure_type Pyroxene-CaIrO3
_exptl_crystal_density_diffrn 4.09
_cell_measurement_temperature 300.
_publ_section_title

;
High-pressure stability relations, crystal structures, and physical properties
of perovskite and post-perovskite of Na Ni F3
;
loop_
_citation_id
_citation_journal_full
_citation_year
_citation_journal_volume
_citation_page_first
_citation_page_last
_citation_journal_id_ASTM
primary 'Journal of Solid State Chemistry' 2012 191 167 174 JSSCBI
loop_
_publ_author_name
'Shirako, Y.'
'Shi, Y.G.'
'Aimi, A.'
'Mori, D.'
'Kojitani, H.'
'Yamaura, K.'
'Inaguma, Y.'
'Akaogi, M.'
_cell_length_a 3.02643(3)
_cell_length_b 10.05910(9)
_cell_length_c 7.40232(6)
_cell_angle_alpha 90
_cell_angle_beta 90
_cell_angle_gamma 90
_cell_volume 225.35
_cell_formula_units_Z 4
_symmetry_space_group_name_H-M 'C m c m'
_symmetry_Int_Tables_number 63
_refine_ls_R_factor_all 0.0285
loop_
_symmetry_equiv_pos_site_id
_symmetry_equiv_pos_as_xyz
1 '-x, y, -z+1/2'
2 '-x, -y, z+1/2'
3 '-x, y, z'
4 '-x, -y, -z'
5 'x, -y, z+1/2'
6 'x, y, -z+1/2'
7 'x, -y, -z'
8 'x, y, z'
9 '-x+1/2, y+1/2, -z+1/2'
10 '-x+1/2, -y+1/2, z+1/2'
11 '-x+1/2, y+1/2, z'
12 '-x+1/2, -y+1/2, -z'
13 'x+1/2, -y+1/2, z+1/2'
14 'x+1/2, y+1/2, -z+1/2'
15 'x+1/2, -y+1/2, -z'
16 'x+1/2, y+1/2, z'
loop_
_atom_type_symbol
_atom_type_oxidation_number
F1- -1
Na1+ 1
Ni2+ 2
loop_
_atom_site_label
_atom_site_type_symbol
_atom_site_symmetry_multiplicity
_atom_site_Wyckoff_symbol
_atom_site_fract_x
_atom_site_fract_y
_atom_site_fract_z
_atom_site_B_iso_or_equiv
_atom_site_occupancy
_atom_site_attached_hydrogens
F1 F1- 4 c 0.5 0.4251(2) 0.25 0.0104(5) 1 0
F2 F1- 8 f 0.5 0.1244(1) 0.0569(2) 0.0077(4) 1 0
Na1 Na1+ 4 c 0 0.2558(2) 0.25 0.0151(4) 1 0
Ni1 Ni2+ 4 a 0 0 0 0.0057(1) 1 0
#End of TTdata_423598-ICSD