
#(C) 2019 by FIZ Karlsruhe - Leibniz Institute for Information Infrastructure.  All rights reserved.
data_423606-ICSD
_database_code_ICSD 423606
_audit_creation_date 2013-02-01
_chemical_name_systematic 'Sodium terbium catena-disilicate - D-type structure'
_chemical_formula_structural 'Na Tb (Si2 O6)'
_chemical_formula_sum 'Na1 O6 Si2 Tb1'
_exptl_crystal_density_diffrn 3.89
_cell_measurement_temperature 293.
_publ_section_title
'The new oxosilicate Na Tb Si2 O6: a comparison of its A- and D-type structure'
loop_
_citation_id
_citation_journal_full
_citation_year
_citation_journal_volume
_citation_page_first
_citation_page_last
_citation_journal_id_ASTM
primary 'Zeitschrift fuer Kristallographie - Crystalline Materials' 2012 227 476
482 ZKCMAJ
loop_
_publ_author_name
'Schaefer, M.C.'
'Zitzer, S.'
'Schleid, T.'
_cell_length_a 5.4941(4)
_cell_length_b 9.3865(6)
_cell_length_c 9.7230(7)
_cell_angle_alpha 117.263(2)
_cell_angle_beta 97.239(2)
_cell_angle_gamma 99.676(2)
_cell_volume 427.42
_cell_formula_units_Z 3
_symmetry_space_group_name_H-M 'P -1'
_symmetry_Int_Tables_number 2
_refine_ls_R_factor_all 0.026
loop_
_symmetry_equiv_pos_site_id
_symmetry_equiv_pos_as_xyz
1 '-x, -y, -z'
2 'x, y, z'
loop_
_atom_type_symbol
_atom_type_oxidation_number
Na1+ 1
Tb3+ 3
Si4+ 4
O2- -2
loop_
_atom_site_label
_atom_site_type_symbol
_atom_site_symmetry_multiplicity
_atom_site_Wyckoff_symbol
_atom_site_fract_x
_atom_site_fract_y
_atom_site_fract_z
_atom_site_B_iso_or_equiv
_atom_site_occupancy
_atom_site_attached_hydrogens
Na1 Na1+ 1 a 0. 0. 0. 0.0544(14) 1 0
Na2 Na1+ 2 i 0.8299(4) 0.4009(2) 0.0682(2) 0.0151(4) 1 0
Tb1 Tb3+ 1 g 0. 0.5 0.5 0.01075(10) 1 0
Tb2 Tb3+ 2 i 0.67982(4) 0.22111(2) 0.63873(2) 0.00598(9) 1 0
Si1 Si4+ 2 i 0.2241(2) 0.23299(14) 0.87667(14) 0.0066(2) 1 0
Si2 Si4+ 2 i 0.1060(2) 0.12122(14) 0.36966(14) 0.0052(2) 1 0
Si3 Si4+ 2 i 0.3894(2) 0.36171(14) 0.25152(14) 0.0055(2) 1 0
O1 O2- 2 i 0.4943(7) 0.2758(5) 0.8425(4) 0.0171(8) 1 0
O2 O2- 2 i 0.0210(7) 0.3205(4) 0.8387(4) 0.0118(7) 1 0
O3 O2- 2 i 0.0965(7) 0.0315(4) 0.7873(4) 0.0145(7) 1 0
O4 O2- 2 i 0.9605(7) 0.2417(4) 0.4866(4) 0.0119(7) 1 0
O5 O2- 2 i 0.3000(7) 0.0539(4) 0.4492(4) 0.0100(6) 1 0
O6 O2- 2 i 0.2594(7) 0.2251(5) 0.2984(4) 0.0221(8) 1 0
O7 O2- 2 i 0.6883(7) 0.3899(4) 0.2777(4) 0.0143(7) 1 0
O8 O2- 2 i 0.2923(7) 0.5243(4) 0.3498(4) 0.0130(7) 1 0
O9 O2- 2 i 0.2470(7) 0.2762(5) 0.0631(4) 0.0171(8) 1 0
loop_
_atom_site_aniso_label
_atom_site_aniso_type_symbol
_atom_site_aniso_U_11
_atom_site_aniso_U_22
_atom_site_aniso_U_33
_atom_site_aniso_U_12
_atom_site_aniso_U_13
_atom_site_aniso_U_23
Na1 Na1+ 0.094(4) 0.030(2) 0.023(2) -0.025(2) 0.004(2) 0.0162(16)
Na2 Na1+ 0.0149(10) 0.0158(9) 0.0121(10) -0.0007(7) 0.0048(8) 0.0059(7)
Tb1 Tb3+ 0.00682(17) 0.01522(17) 0.01206(18) -0.00321(12) -0.00090(12)
0.01094(13)
Tb2 Tb3+ 0.00538(13) 0.00578(13) 0.00642(13) 0.00017(8) 0.00178(8) 0.00302(9)
Si1 Si4+ 0.0055(6) 0.0091(6) 0.0044(6) 0.0003(4) 0.0013(4) 0.0031(4)
Si2 Si4+ 0.0042(5) 0.0059(5) 0.0056(6) 0.0011(4) 0.0016(5) 0.0028(4)
Si3 Si4+ 0.0054(6) 0.0059(5) 0.0058(6) 0.0019(4) 0.0025(4) 0.0029(4)
O1 O2- 0.0114(17) 0.027(2) 0.0131(18) 0.0021(15) 0.0075(14) 0.0102(15)
O2 O2- 0.0115(17) 0.0100(15) 0.0112(16) 0.0030(13) 0.0006(13) 0.0034(13)
O3 O2- 0.0140(18) 0.0096(15) 0.0143(17) -0.0015(13) -0.0063(14) 0.0052(13)
O4 O2- 0.0127(17) 0.0149(17) 0.0099(16) 0.0089(14) 0.0064(14) 0.0049(13)
O5 O2- 0.0106(16) 0.0114(15) 0.0089(16) 0.0029(13) -0.0001(13) 0.0064(13)
O6 O2- 0.019(2) 0.027(2) 0.030(2) 0.0006(16) 0.0063(17) 0.0236(18)
O7 O2- 0.0067(16) 0.0224(19) 0.0147(18) 0.0000(14) 0.0012(13) 0.0113(15)
O8 O2- 0.0163(19) 0.0077(15) 0.0148(18) 0.0064(14) 0.0069(15) 0.0037(13)
O9 O2- 0.0153(18) 0.0246(19) 0.0048(16) -0.0011(15) 0.0007(14) 0.0043(14)
#End of TTdata_423606-ICSD