
#(C) 2019 by FIZ Karlsruhe - Leibniz Institute for Information Infrastructure.  All rights reserved.
data_423678-ICSD
_database_code_ICSD 423678
_audit_creation_date 2013-02-01
_chemical_name_systematic 'Sodium thorium fluoride (1/3/13)'
_chemical_formula_structural 'Na Th3 F13'
_chemical_formula_sum 'F13 Na1 Th3'
_exptl_crystal_density_diffrn 6.43
_cell_measurement_temperature 293.
_publ_section_title 'The crystal structures of Cs Th6 F25 and Na Th3 F13'
loop_
_citation_id
_citation_journal_full
_citation_year
_citation_journal_volume
_citation_page_first
_citation_page_last
_citation_journal_id_ASTM
primary 'Journal of Chemical Crystallography' 2012 42 606 610 JCCYEV
loop_
_publ_author_name
'Underwood, C.C.'
'McMillen, C.D.'
'Kolis, J.W.'
_cell_length_a 8.2570(12)
_cell_length_b 8.2570(12)
_cell_length_c 16.891(3)
_cell_angle_alpha 90.
_cell_angle_beta 90.
_cell_angle_gamma 120.
_cell_volume 997.31
_cell_formula_units_Z 4
_symmetry_space_group_name_H-M 'P 63/m m c'
_symmetry_Int_Tables_number 194
_refine_ls_R_factor_all 0.0422
loop_
_symmetry_equiv_pos_site_id
_symmetry_equiv_pos_as_xyz
1 'x, x-y, -z+1/2'
2 '-x+y, y, -z+1/2'
3 '-y, -x, -z+1/2'
4 '-x+y, -x, -z+1/2'
5 '-y, x-y, -z+1/2'
6 'x, y, -z+1/2'
7 '-x, -x+y, z+1/2'
8 'x-y, -y, z+1/2'
9 'y, x, z+1/2'
10 'x-y, x, z+1/2'
11 'y, -x+y, z+1/2'
12 '-x, -y, z+1/2'
13 '-x, -x+y, -z'
14 'x-y, -y, -z'
15 'y, x, -z'
16 'x-y, x, -z'
17 'y, -x+y, -z'
18 '-x, -y, -z'
19 'x, x-y, z'
20 '-x+y, y, z'
21 '-y, -x, z'
22 '-x+y, -x, z'
23 '-y, x-y, z'
24 'x, y, z'
loop_
_atom_type_symbol
_atom_type_oxidation_number
Th4+ 4
Na1+ 1
F1- -1
loop_
_atom_site_label
_atom_site_type_symbol
_atom_site_symmetry_multiplicity
_atom_site_Wyckoff_symbol
_atom_site_fract_x
_atom_site_fract_y
_atom_site_fract_z
_atom_site_B_iso_or_equiv
_atom_site_occupancy
_atom_site_attached_hydrogens
Th1 Th4+ 12 k 0.32404(8) 0.16202(4) 0.11323(4) 0.0122(4) 1 0
Na1 Na1+ 4 f 0.3333 0.6667 0.1013(11) 0.041(5) 1 0
F1 F1- 12 k 0.1681(6) -0.1681(6) 0.1446(7) 0.015(2) 1 0
F2 F1- 12 k 0.5391(7) 0.4609(7) 0.1609(6) 0.022(2) 1 0
F3 F1- 12 i 0.3278(12) 0. 0. 0.019(2) 1 0
F4 F1- 6 h 0.277(2) 0.1385(11) 0.25 0.024(3) 1 0
F5 F1- 4 e 0. 0. 0.0878(15) 0.037(5) 1 0
F6 F1- 4 f 0.6667 0.3333 0.0515(10) 0.022(4) 1 0
F7 F1- 2 c 0.3333 0.6667 0.25 0.11(2) 1 0
loop_
_atom_site_aniso_label
_atom_site_aniso_type_symbol
_atom_site_aniso_U_11
_atom_site_aniso_U_22
_atom_site_aniso_U_33
_atom_site_aniso_U_12
_atom_site_aniso_U_13
_atom_site_aniso_U_23
Th1 Th4+ 0.0158(5) 0.0131(5) 0.0085(5) 0.0079(2) -0.00065(18) -0.00033(9)
Na1 Na1+ 0.034(6) 0.034(6) 0.054(10) 0.017(3) 0. 0.
F1 F1- 0.010(4) 0.010(4) 0.016(6) -0.001(3) -0.0040(17) 0.0040(17)
F2 F1- 0.012(3) 0.012(3) 0.030(5) -0.003(4) 0.005(2) -0.005(2)
F3 F1- 0.018(3) 0.025(5) 0.016(5) 0.013(3) -0.0040(19) -0.008(4)
F4 F1- 0.020(7) 0.030(6) 0.018(7) 0.010(4) 0. 0.
F5 F1- 0.024(6) 0.024(6) 0.062(13) 0.012(3) 0. 0.
F6 F1- 0.024(5) 0.024(5) 0.016(9) 0.012(3) 0. 0.
F7 F1- 0.13(3) 0.13(3) 0.06(3) 0.065(17) 0. 0.
#End of TTdata_423678-ICSD