
#(C) 2019 by FIZ Karlsruhe - Leibniz Institute for Information Infrastructure.  All rights reserved.
data_424199-ICSD
_database_code_ICSD 424199
_audit_creation_date 2013-02-01
_chemical_name_systematic 'Disodium chromate(VI) decahydrate'
_chemical_formula_structural 'Na2 (Cr O4) (H2 O)10'
_chemical_formula_sum 'H20 Cr1 Na2 O14'
_chemical_name_structure_type Na2SO4(H2O)10
_exptl_crystal_density_diffrn 1.52
_cell_measurement_temperature 173.
_publ_section_title

;
Crystal structures of two hydrated sodium chromates : Na2 Cr O4 Ã— 10 H2 O and
Na2 Cr O4 Ã— 1.5 H2 O
;
loop_
_citation_id
_citation_journal_full
_citation_year
_citation_journal_volume
_citation_page_first
_citation_page_last
_citation_journal_id_ASTM
primary 'Zeitschrift fuer Kristallographie - Crystalline Materials' 2012 227 621
628 ZKCMAJ
loop_
_publ_author_name
'Kahlenberg, V.'
_cell_length_a 11.5356(12)
_cell_length_b 10.4989(7)
_cell_length_c 12.9454(13)
_cell_angle_alpha 90.
_cell_angle_beta 107.489(8)
_cell_angle_gamma 90.
_cell_volume 1495.36
_cell_formula_units_Z 4
_symmetry_space_group_name_H-M 'P 1 21/c 1'
_symmetry_Int_Tables_number 14
_refine_ls_R_factor_all 0.0373
loop_
_symmetry_equiv_pos_site_id
_symmetry_equiv_pos_as_xyz
1 'x, -y+1/2, z+1/2'
2 '-x, -y, -z'
3 '-x, y+1/2, -z+1/2'
4 'x, y, z'
loop_
_atom_type_symbol
_atom_type_oxidation_number
Cr6+ 6
Na1+ 1
O2- -2
H1+ 1
loop_
_atom_site_label
_atom_site_type_symbol
_atom_site_symmetry_multiplicity
_atom_site_Wyckoff_symbol
_atom_site_fract_x
_atom_site_fract_y
_atom_site_fract_z
_atom_site_B_iso_or_equiv
_atom_site_occupancy
_atom_site_attached_hydrogens
Cr1 Cr6+ 4 e 0.74979(3) 0.14039(4) 0.73761(3) 0.01749(11) 1 0
Na1 Na1+ 4 e 0.74279(8) -0.24601(10) 0.97742(7) 0.0226(2) 1 0
Na2 Na1+ 4 e 0.75672(9) -0.10831(9) 0.23460(7) 0.0211(2) 1 0
O1 O2- 4 e 0.86808(15) 0.19473(18) 0.83320(14) 0.0257(4) 1 0
O2 O2- 4 e 0.7365(2) 0.2174(3) 0.62319(18) 0.0248(5) 0.783(5) 0
O3 O2- 4 e 0.6285(2) 0.1583(3) 0.7764(2) 0.0260(5) 0.783(5) 0
O4 O2- 4 e 0.7713(3) -0.0121(2) 0.7186(2) 0.0287(6) 0.783(5) 0
O5 O2- 4 e 0.7559(9) 0.1859(10) 0.6170(5) 0.0248(5) 0.217(5) 0
O6 O2- 4 e 0.6253(5) 0.2051(10) 0.7530(8) 0.0260(5) 0.217(5) 0
O7 O2- 4 e 0.7307(9) -0.0139(5) 0.7427(7) 0.0287(6) 0.217(5) 0
O8 O2- 4 e 0.85426(15) -0.22008(17) 0.85050(14) 0.0233(4) 1 0
O9 O2- 4 e 0.64476(15) -0.27633(17) 0.11477(14) 0.0235(4) 1 0
O10 O2- 4 e 0.88067(17) 0.04271(18) 0.35908(15) 0.0285(4) 1 0
O11 O2- 4 e 0.86624(17) -0.4352(2) 0.05037(15) 0.0316(4) 1 0
O12 O2- 4 e 0.88122(15) -0.10990(18) 0.11290(14) 0.0241(4) 1 0
O13 O2- 4 e 0.61851(16) -0.39311(18) 0.84594(14) 0.0247(4) 1 0
O14 O2- 4 e 0.61327(17) -0.0626(2) 0.91032(16) 0.0306(4) 1 0
O15 O2- 4 e 0.63485(16) 0.04688(18) 0.11264(15) 0.0269(4) 1 0
O16 O2- 4 e 0.09539(16) -0.14828(19) 0.94722(15) 0.0275(4) 1 0
O17 O2- 4 e 0.40179(17) -0.35226(19) 0.08515(15) 0.0286(4) 1 0
H1 H1+ 4 e 0.625(3) -0.009(3) 0.866(2) 0.042(2) 1 0
H2 H1+ 4 e 0.537(2) -0.074(5) 0.890(4) 0.042(2) 0.5 0
H3 H1+ 4 e 0.629(5) -0.024(5) 0.970(2) 0.042(2) 0.5 0
H4 H1+ 4 e 0.549(2) -0.367(3) 0.816(3) 0.042(2) 1 0
H5 H1+ 4 e 0.613(3) -0.467(2) 0.867(3) 0.042(2) 1 0
H6 H1+ 4 e 0.108(3) -0.160(3) 1.0123(15) 0.042(2) 1 0
H7 H1+ 4 e 0.139(3) -0.196(3) 0.924(2) 0.042(2) 1 0
H8 H1+ 4 e 0.9278(17) -0.208(3) 0.884(2) 0.042(2) 1 0
H9 H1+ 4 e 0.832(3) -0.149(2) 0.819(2) 0.042(2) 1 0
H10 H1+ 4 e 0.383(3) -0.300(3) 0.127(2) 0.042(2) 1 0
H11 H1+ 4 e 0.360(3) -0.335(3) 0.0236(15) 0.042(2) 1 0
H12 H1+ 4 e 0.953(2) -0.140(3) 0.137(3) 0.042(2) 1 0
H13 H1+ 4 e 0.893(3) -0.0339(19) 0.095(3) 0.042(2) 1 0
H14 H1+ 4 e 0.661(3) 0.120(2) 0.117(3) 0.042(2) 1 0
H15 H1+ 4 e 0.637(5) 0.014(4) 0.055(3) 0.042(2) 0.5 0
H16 H1+ 4 e 0.563(2) 0.048(5) 0.113(5) 0.042(2) 0.5 0
H17 H1+ 4 e 0.676(3) -0.344(2) 0.148(3) 0.042(2) 1 0
H18 H1+ 4 e 0.5703(15) -0.287(3) 0.097(3) 0.042(2) 1 0
H19 H1+ 4 e 0.862(3) 0.1209(18) 0.349(3) 0.042(2) 1 0
H20 H1+ 4 e 0.864(5) 0.021(4) 0.415(3) 0.042(2) 0.5 0
H21 H1+ 4 e 0.956(2) 0.039(4) 0.372(5) 0.042(2) 0.5 0
H22 H1+ 4 e 0.832(3) -0.473(3) 0.090(2) 0.042(2) 1 0
H23 H1+ 4 e 0.853(4) -0.475(5) -0.007(2) 0.042(2) 0.5 0
H24 H1+ 4 e 0.9411(17) -0.440(6) 0.083(3) 0.042(2) 0.5 0
loop_
_atom_site_aniso_label
_atom_site_aniso_type_symbol
_atom_site_aniso_U_11
_atom_site_aniso_U_22
_atom_site_aniso_U_33
_atom_site_aniso_U_12
_atom_site_aniso_U_13
_atom_site_aniso_U_23
Cr1 Cr6+ 0.01805(18) 0.01721(19) 0.01673(18) -0.00097(16) 0.00450(13)
0.00016(14)
Na1 Na1+ 0.0212(4) 0.0257(5) 0.0214(5) -0.0005(4) 0.0072(4) -0.0021(4)
Na2 Na1+ 0.0209(4) 0.0217(5) 0.0205(4) -0.0001(4) 0.0061(4) 0.0005(4)
O1 O2- 0.0205(8) 0.0271(10) 0.0257(9) -0.0007(7) 0.0014(7) -0.0018(7)
O8 O2- 0.0185(8) 0.0246(10) 0.0246(9) -0.0033(7) 0.0032(7) 0.0010(7)
O9 O2- 0.0191(8) 0.0245(10) 0.0265(9) -0.0003(7) 0.0063(7) 0.0021(7)
O10 O2- 0.0269(9) 0.0231(10) 0.0316(10) -0.0009(8) 0.0028(8) 0.0005(7)
O11 O2- 0.0267(10) 0.0402(12) 0.0294(10) 0.0072(9) 0.0104(8) 0.0048(8)
O12 O2- 0.0176(8) 0.0264(10) 0.0285(9) 0.0000(7) 0.0072(7) 0.0007(7)
O13 O2- 0.0183(8) 0.0274(11) 0.0267(9) -0.0013(7) 0.0044(7) 0.0014(7)
O14 O2- 0.0252(9) 0.0348(12) 0.0334(10) 0.0018(8) 0.0111(8) 0.0080(8)
O15 O2- 0.0226(9) 0.0252(10) 0.0313(10) 0.0002(7) 0.0055(7) -0.0003(7)
O16 O2- 0.0243(9) 0.0317(11) 0.0273(9) 0.0036(8) 0.0092(7) 0.0012(8)
O17 O2- 0.0270(9) 0.0311(11) 0.0255(9) 0.0007(8) 0.0047(7) 0.0008(8)
#End of TTdata_424199-ICSD