
#(C) 2019 by FIZ Karlsruhe - Leibniz Institute for Information Infrastructure.  All rights reserved.
data_424353-ICSD
_database_code_ICSD 424353
_audit_creation_date 2014-08-01
_chemical_name_systematic 'Sodium barium pentaborate'
_chemical_formula_structural 'Na Ba (B5 O9)'
_chemical_formula_sum 'B5 Ba1 Na1 O9'
_chemical_name_structure_type NaCaB5O9
_exptl_crystal_density_diffrn 3.23
_cell_measurement_temperature 296.
_publ_section_title

;
Synthesis, structures, optical properties and electronic structures of two
mixed metal borates M Ba B5 O9 (M = Na, K)
;
loop_
_citation_id
_citation_journal_full
_citation_year
_citation_journal_volume
_citation_page_first
_citation_page_last
_citation_journal_id_ASTM
primary 'Journal of Alloys and Compounds' 2014 585 602 607 JALCEU
loop_
_publ_author_name
'Yu, Hongwei'
'Pan, Shilie'
'Wu, Hongping'
'Su, Xin'
'Yang, Zhihua'
_cell_length_a 6.5773(19)
_cell_length_b 13.872(4)
_cell_length_c 8.371(2)
_cell_angle_alpha 90.
_cell_angle_beta 105.393(3)
_cell_angle_gamma 90.
_cell_volume 736.37
_cell_formula_units_Z 4
_symmetry_space_group_name_H-M 'P 1 21/c 1'
_symmetry_Int_Tables_number 14
_refine_ls_R_factor_all 0.0182
loop_
_symmetry_equiv_pos_site_id
_symmetry_equiv_pos_as_xyz
1 'x, -y+1/2, z+1/2'
2 '-x, -y, -z'
3 '-x, y+1/2, -z+1/2'
4 'x, y, z'
loop_
_atom_type_symbol
_atom_type_oxidation_number
Na1+ 1
Ba2+ 2
B3+ 3
O2- -2
loop_
_atom_site_label
_atom_site_type_symbol
_atom_site_symmetry_multiplicity
_atom_site_Wyckoff_symbol
_atom_site_fract_x
_atom_site_fract_y
_atom_site_fract_z
_atom_site_B_iso_or_equiv
_atom_site_occupancy
_atom_site_attached_hydrogens
Na1 Na1+ 4 e 1.0414(2) 0.58234(10) 0.35545(19) 0.0273(3) 1 0
Ba1 Ba2+ 4 e 0.58664(2) 0.718375(12) 0.06295(2) 0.01184(9) 1 0
B1 B3+ 4 e 1.0746(5) 0.7512(3) 0.1161(4) 0.0153(6) 1 0
B2 B3+ 4 e 1.3051(5) 0.4456(2) 0.2472(4) 0.0147(6) 1 0
B3 B3+ 4 e 0.9611(5) 0.3504(2) 0.1439(4) 0.0147(6) 1 0
B4 B3+ 4 e 0.3213(5) 0.6121(2) -0.2785(4) 0.0147(6) 1 0
B5 B3+ 4 e 1.5997(5) 0.5570(3) 0.3520(4) 0.0162(7) 1 0
O1 O2- 4 e 0.6660(4) 0.85414(17) -0.1194(3) 0.0232(5) 1 0
O2 O2- 4 e 1.0000(3) 0.67503(15) 0.0164(3) 0.0150(4) 1 0
O3 O2- 4 e 0.9826(4) 0.76482(16) 0.2437(3) 0.0175(5) 1 0
O4 O2- 4 e 0.2561(3) 0.62480(16) -0.1298(3) 0.0153(4) 1 0
O5 O2- 4 e 1.3815(3) 0.53601(16) 0.3019(3) 0.0209(5) 1 0
O6 O2- 4 e 0.7381(3) 0.48114(16) 0.3589(3) 0.0191(5) 1 0
O7 O2- 4 e 1.2310(3) 0.68891(17) 0.5945(3) 0.0165(4) 1 0
O8 O2- 4 e 1.0961(3) 0.43319(16) 0.2137(3) 0.0171(4) 1 0
O9 O2- 4 e 1.4441(3) 0.37386(15) 0.2363(3) 0.0152(4) 1 0
loop_
_atom_site_aniso_label
_atom_site_aniso_type_symbol
_atom_site_aniso_U_11
_atom_site_aniso_U_22
_atom_site_aniso_U_33
_atom_site_aniso_U_12
_atom_site_aniso_U_13
_atom_site_aniso_U_23
Na1 Na1+ 0.0201(6) 0.0251(7) 0.0372(8) -0.0006(5) 0.0085(6) -0.0045(6)
Ba1 Ba2+ 0.00863(11) 0.01584(12) 0.01075(11) -0.00128(6) 0.00205(7) -0.00171(6)
B1 B3+ 0.0136(16) 0.0172(16) 0.0150(16) 0.0016(13) 0.0036(13) 0.0021(13)
B2 B3+ 0.0139(15) 0.0164(16) 0.0137(16) -0.0003(12) 0.0035(12) -0.0001(12)
B3 B3+ 0.0141(15) 0.0157(16) 0.0143(15) -0.0003(12) 0.0033(12) -0.0005(12)
B4 B3+ 0.0090(14) 0.0169(16) 0.0175(16) 0.0013(12) 0.0023(12) 0.0001(13)
B5 B3+ 0.0154(16) 0.0191(16) 0.0147(16) -0.0018(13) 0.0048(13) -0.0007(12)
O1 O2- 0.0222(11) 0.0181(11) 0.0273(13) 0.0042(9) 0.0032(10) -0.0007(9)
O2 O2- 0.0136(10) 0.0177(11) 0.0138(10) -0.0015(8) 0.0036(8) -0.0006(8)
O3 O2- 0.0172(11) 0.0201(11) 0.0172(11) -0.0060(9) 0.0082(9) -0.0031(9)
O4 O2- 0.0119(10) 0.0178(10) 0.0156(10) 0.0003(8) 0.0025(8) 0.0014(8)
O5 O2- 0.0130(10) 0.0175(11) 0.0314(13) 0.0009(8) 0.0045(9) -0.0036(9)
O6 O2- 0.0126(10) 0.0209(11) 0.0236(12) -0.0020(8) 0.0042(9) -0.0051(9)
O7 O2- 0.0128(10) 0.0216(11) 0.0152(11) 0.0032(8) 0.0037(8) 0.0015(9)
O8 O2- 0.0122(10) 0.0176(11) 0.0219(12) 0.0003(8) 0.0053(9) -0.0051(9)
O9 O2- 0.0094(9) 0.0173(10) 0.0179(11) -0.0001(8) 0.0017(8) -0.0025(8)
#End of TTdata_424353-ICSD