
#(C) 2019 by FIZ Karlsruhe - Leibniz Institute for Information Infrastructure.  All rights reserved.
data_424365-ICSD
_database_code_ICSD 424365
_audit_creation_date 2013-02-01
_chemical_name_systematic 'Tetrasodium diphosphate(IV) decahydrate'
_chemical_formula_structural 'Na4 P2 O6 (H2 O)10'
_chemical_formula_sum 'H20 Na4 O16 P2'
_exptl_crystal_density_diffrn 1.84
_cell_measurement_temperature 223.
_publ_section_title

;
New quaternary alkali-metal hypodiphosphate hydrates: preparation, crystal
structure, vibrational spectrum, and thermal behavior of K4 P2 O6 Â· 8 H2 O and
Na2 K2 P2 O6 Â· 8 H2 O in comparison to Na4 P2 O6 Â· 10 H2 O
;
loop_
_citation_id
_citation_journal_full
_citation_year
_citation_journal_volume
_citation_page_first
_citation_page_last
_citation_journal_id_ASTM
primary 'Zeitschrift fuer Anorganische und Allgemeine Chemie (1950) (DE)' 2012
638 2144 2149 ZAACAB
loop_
_publ_author_name
'Gjikaj, M.'
'Wu Peng'
'Brockner, W.'
_cell_length_a 17.0161(12)
_cell_length_b 6.9682(16)
_cell_length_c 14.440(2)
_cell_angle_alpha 90.
_cell_angle_beta 115.020(13)
_cell_angle_gamma 90.
_cell_volume 1551.5
_cell_formula_units_Z 4
_symmetry_space_group_name_H-M 'C 1 2/c 1'
_symmetry_Int_Tables_number 15
_refine_ls_R_factor_all 0.0399
loop_
_symmetry_equiv_pos_site_id
_symmetry_equiv_pos_as_xyz
1 'x, -y, z+1/2'
2 '-x, -y, -z'
3 '-x, y, -z+1/2'
4 'x, y, z'
5 'x+1/2, -y+1/2, z+1/2'
6 '-x+1/2, -y+1/2, -z'
7 '-x+1/2, y+1/2, -z+1/2'
8 'x+1/2, y+1/2, z'
loop_
_atom_type_symbol
_atom_type_oxidation_number
P4+ 4
Na1+ 1
O2- -2
H1+ 1
loop_
_atom_site_label
_atom_site_type_symbol
_atom_site_symmetry_multiplicity
_atom_site_Wyckoff_symbol
_atom_site_fract_x
_atom_site_fract_y
_atom_site_fract_z
_atom_site_B_iso_or_equiv
_atom_site_occupancy
_atom_site_attached_hydrogens
P1 P4+ 8 f 0.44763(4) 0.77676(8) 0.17205(4) 0.0103(2) 1 0
Na1 Na1+ 8 f 0.75797(7) 1.30109(16) 0.39066(8) 0.0227(3) 1 0
Na2 Na1+ 8 f 0.61506(7) 1.07840(15) 0.19181(8) 0.0185(3) 1 0
O1 O2- 8 f 0.36232(12) 0.8044(3) 0.18185(13) 0.0176(4) 1 0
O2 O2- 8 f 0.47022(12) 0.9548(3) 0.12616(13) 0.0161(4) 1 0
O3 O2- 8 f 0.44803(13) 0.5947(3) 0.11291(14) 0.0186(4) 1 0
O4 O2- 8 f 0.60740(13) 1.2650(3) 0.32329(15) 0.0191(4) 1 0
O5 O2- 8 f 0.89994(14) 1.3697(3) 0.44632(15) 0.0210(4) 1 0
O6 O2- 8 f 0.76961(13) 1.0772(3) 0.25000(17) 0.0220(4) 1 0
O7 O2- 8 f 0.58486(14) 1.3751(3) 0.09987(17) 0.0222(4) 1 0
O8 O2- 8 f 0.76083(14) 1.0105(3) 0.48189(16) 0.0230(4) 1 0
H1 H1+ 8 f 0.588(3) 1.188(6) 0.344(3) 0.030(10) 1 0
H2 H1+ 8 f 0.589(3) 1.370(7) 0.338(3) 0.047(12) 1 0
H3 H1+ 8 f 0.940(3) 1.334(6) 0.440(3) 0.032(10) 1 0
H4 H1+ 8 f 0.917(3) 1.432(7) 0.502(4) 0.051(13) 1 0
H5 H1+ 8 f 0.794(3) 1.147(7) 0.227(4) 0.057(14) 1 0
H6 H1+ 8 f 0.806(3) 1.009(6) 0.293(3) 0.036(11) 1 0
H7 H1+ 8 f 0.576(3) 1.392(7) 0.047(4) 0.047(14) 1 0
H8 H1+ 8 f 0.546(3) 1.435(6) 0.104(3) 0.030(10) 1 0
H9 H1+ 8 f 0.812(3) 0.943(6) 0.515(3) 0.048(12) 1 0
H10 H1+ 8 f 0.725(3) 0.944(6) 0.431(4) 0.047(12) 1 0
loop_
_atom_site_aniso_label
_atom_site_aniso_type_symbol
_atom_site_aniso_U_11
_atom_site_aniso_U_22
_atom_site_aniso_U_33
_atom_site_aniso_U_12
_atom_site_aniso_U_13
_atom_site_aniso_U_23
P1 P4+ 0.0123(3) 0.0100(3) 0.0083(3) -0.0008(2) 0.0040(2) 0.0000(2)
Na1 Na1+ 0.0207(6) 0.0249(6) 0.0227(6) -0.0046(5) 0.0094(5) -0.0029(5)
Na2 Na1+ 0.0203(5) 0.0184(5) 0.0177(5) -0.0012(4) 0.0089(4) -0.0022(4)
O1 O2- 0.0167(9) 0.0208(9) 0.0151(8) 0.0015(8) 0.0067(8) 0.0042(7)
O2 O2- 0.0168(9) 0.0163(9) 0.0136(8) -0.0019(7) 0.0048(7) 0.0045(7)
O3 O2- 0.0260(10) 0.0141(9) 0.0160(9) -0.0014(8) 0.0093(8) -0.0053(7)
O4 O2- 0.0232(11) 0.0140(9) 0.0229(10) -0.0016(8) 0.0125(9) -0.0015(8)
O5 O2- 0.0180(10) 0.0309(11) 0.0150(10) -0.0034(8) 0.0078(8) -0.0038(8)
O6 O2- 0.0171(10) 0.0243(10) 0.0245(11) -0.0009(9) 0.0086(9) 0.0068(9)
O7 O2- 0.0243(11) 0.0249(11) 0.0183(11) 0.0064(9) 0.0097(9) 0.0039(8)
O8 O2- 0.0215(10) 0.0220(10) 0.0197(9) 0.0015(9) 0.0032(9) -0.0038(9)
#End of TTdata_424365-ICSD