
#(C) 2019 by FIZ Karlsruhe - Leibniz Institute for Information Infrastructure.  All rights reserved.
data_424570-ICSD
_database_code_ICSD 424570
_audit_creation_date 2016-02-01
_chemical_name_systematic 'Sodium holmium polyphosphate'
_chemical_formula_structural 'Na Ho (P O3)4'
_chemical_formula_sum 'Ho1 Na1 O12 P4'
_chemical_name_structure_type KCe(PO3)4
_exptl_crystal_density_diffrn 3.67
_cell_measurement_temperature 296.
_publ_section_title

;
Sodium holmium polyphosphate NaHo(PO3)4 with [P4O12]4- spiral chains:
synthesis, crystal structure, and luminescent properties
;
loop_
_citation_id
_citation_journal_full
_citation_year
_citation_journal_volume
_citation_page_first
_citation_page_last
_citation_journal_id_ASTM
primary 'Chinese Journal of Structural Chemistry' 2014 33 619 625 CJSCBE
loop_
_publ_author_name
'Zhu, Jing'
'Kong, Hui-lan'
'Chen, Hui'
'Zhu, Zhong-qi'
_cell_length_a 7.181(3)
_cell_length_b 13.059(5)
_cell_length_c 9.730(4)
_cell_angle_alpha 90.
_cell_angle_beta 90.6
_cell_angle_gamma 90.
_cell_volume 912.39
_cell_formula_units_Z 4
_symmetry_space_group_name_H-M 'P 1 21/n 1'
_symmetry_Int_Tables_number 14
_refine_ls_R_factor_all 0.0413
loop_
_symmetry_equiv_pos_site_id
_symmetry_equiv_pos_as_xyz
1 '-x+1/2, y+1/2, -z+1/2'
2 '-x, -y, -z'
3 'x+1/2, -y+1/2, z+1/2'
4 'x, y, z'
loop_
_atom_type_symbol
_atom_type_oxidation_number
Ho3+ 3
Na1+ 1
P5+ 5
O2- -2
loop_
_atom_site_label
_atom_site_type_symbol
_atom_site_symmetry_multiplicity
_atom_site_Wyckoff_symbol
_atom_site_fract_x
_atom_site_fract_y
_atom_site_fract_z
_atom_site_B_iso_or_equiv
_atom_site_occupancy
_atom_site_attached_hydrogens
Ho1 Ho3+ 4 e -0.01262(3) 0.280836(17) 0.97662(2) 0.00688(10) 1 0
Na1 Na1+ 4 e -0.5006(4) 0.2771(2) 1.0637(3) 0.0221(6) 1 0
P1 P5+ 4 e 0.35203(19) 0.12807(10) 0.80370(13) 0.0059(2) 1 0
P2 P5+ 4 e 0.75022(19) 0.10218(10) 0.74468(14) 0.0067(2) 1 0
P3 P5+ 4 e 0.87515(19) -0.11509(10) 0.73652(13) 0.0065(2) 1 0
P4 P5+ 4 e 0.26733(19) -0.09124(10) 0.79918(14) 0.0067(2) 1 0
O1 O2- 4 e -0.2970(5) 0.3520(3) 0.8971(4) 0.0110(7) 1 0
O2 O2- 4 e 0.2125(5) 0.3906(3) 1.0940(4) 0.0095(7) 1 0
O3 O2- 4 e 0.2756(6) 0.2114(3) 0.8931(4) 0.0110(8) 1 0
O4 O2- 4 e 0.3231(6) 0.1330(3) 0.6525(4) 0.0108(7) 1 0
O5 O2- 4 e 0.2812(6) 0.0217(3) 0.8643(4) 0.0102(7) 1 0
O6 O2- 4 e 0.5703(5) 0.1264(3) 0.8367(4) 0.0103(7) 1 0
O7 O2- 4 e 0.9062(6) 0.1664(3) 0.7975(4) 0.0115(7) 1 0
O8 O2- 4 e 0.7821(6) -0.0134(3) 0.7921(4) 0.0117(8) 1 0
O9 O2- 4 e 1.0844(5) -0.0813(3) 0.7066(4) 0.0090(7) 1 0
O10 O2- 4 e 0.8674(5) -0.1891(3) 0.8529(4) 0.0101(7) 1 0
O11 O2- 4 e 0.4293(5) -0.1117(3) 0.7060(4) 0.0121(8) 1 0
O12 O2- 4 e 0.2366(5) -0.1624(3) 0.9161(4) 0.0121(8) 1 0
loop_
_atom_site_aniso_label
_atom_site_aniso_type_symbol
_atom_site_aniso_U_11
_atom_site_aniso_U_22
_atom_site_aniso_U_33
_atom_site_aniso_U_12
_atom_site_aniso_U_13
_atom_site_aniso_U_23
Ho1 Ho3+ 0.00551(14) 0.00719(14) 0.00789(13) 0.00032(8) -0.00144(8) 0.00025(8)
Na1 Na1+ 0.0190(14) 0.0281(15) 0.0191(12) 0.0075(10) 0.0004(10) -0.0007(10)
P1 P5+ 0.0045(6) 0.0049(5) 0.0082(5) -0.0004(4) -0.0011(4) -0.0001(4)
P2 P5+ 0.0046(6) 0.0060(6) 0.0094(5) 0.0005(5) -0.0015(4) 0.0000(4)
P3 P5+ 0.0056(6) 0.0055(5) 0.0083(5) 0.0000(5) -0.0023(4) 0.0009(4)
P4 P5+ 0.0051(6) 0.0050(6) 0.0100(5) 0.0003(5) -0.0015(4) 0.0002(4)
O1 O2- 0.0063(18) 0.0136(19) 0.0129(17) -0.0005(14) -0.0034(14) 0.0011(15)
O2 O2- 0.0092(18) 0.0072(17) 0.0121(17) -0.0016(14) -0.0006(14) 0.0004(14)
O3 O2- 0.012(2) 0.0080(18) 0.0131(18) 0.0009(14) 0.0020(15) -0.0031(13)
O4 O2- 0.0085(18) 0.0133(18) 0.0105(17) -0.0011(15) -0.0034(14) -0.0010(14)
O5 O2- 0.016(2) 0.0047(16) 0.0094(16) -0.0037(15) -0.0003(14) -0.0006(13)
O6 O2- 0.0063(18) 0.0144(18) 0.0103(17) 0.0009(14) -0.0015(14) -0.0023(14)
O7 O2- 0.0104(19) 0.0111(18) 0.0130(17) -0.0023(15) -0.0018(14) -0.0026(14)
O8 O2- 0.014(2) 0.0065(17) 0.0150(17) 0.0031(15) -0.0005(15) 0.0004(14)
O9 O2- 0.0048(17) 0.0125(17) 0.0097(16) -0.0035(14) -0.0039(13) 0.0030(14)
O10 O2- 0.0096(19) 0.0074(16) 0.0132(17) 0.0026(15) -0.0031(14) 0.0054(14)
O11 O2- 0.0067(19) 0.0147(19) 0.0148(18) -0.0009(15) -0.0021(14) -0.0064(15)
O12 O2- 0.0103(19) 0.0089(17) 0.0170(18) -0.0015(14) -0.0068(15) 0.0035(15)
#End of TTdata_424570-ICSD