
#(C) 2019 by FIZ Karlsruhe - Leibniz Institute for Information Infrastructure.  All rights reserved.
data_424558-ICSD
_database_code_ICSD 424558
_audit_creation_date 2013-02-01
_chemical_name_systematic 'Pentasodium trioxoferrate(II) hydroxide'
_chemical_formula_structural 'Na5 (Fe O3) (O H)'
_chemical_formula_sum 'H1 Fe1 Na5 O4'
_chemical_name_structure_type Na5CoO3OH
_exptl_crystal_density_diffrn 2.62
_cell_measurement_temperature 293.
_publ_section_title

;
Crystal structure and vibrational properties of a sodium oxoferrate(II)
hydroxide, Na5 [Fe O3] [O H]
;
loop_
_citation_id
_citation_journal_full
_citation_year
_citation_journal_volume
_citation_page_first
_citation_page_last
_citation_journal_id_ASTM
primary 'Zeitschrift fuer Anorganische und Allgemeine Chemie (1950) (DE)' 2012
638 2087 2092 ZAACAB
loop_
_publ_author_name
'Gheorghe, D.E.'
'Litvinchuk, A.P.'
'Moeller, A.'
_cell_length_a 9.9094(7)
_cell_length_b 10.1641(7)
_cell_length_c 11.8535(8)
_cell_angle_alpha 90.
_cell_angle_beta 90.
_cell_angle_gamma 90.
_cell_volume 1193.89
_cell_formula_units_Z 8
_symmetry_space_group_name_H-M 'P n m a'
_symmetry_Int_Tables_number 62
_refine_ls_R_factor_all 0.0199
loop_
_symmetry_equiv_pos_site_id
_symmetry_equiv_pos_as_xyz
1 'x+1/2, y, -z+1/2'
2 'x, -y+1/2, z'
3 '-x+1/2, y+1/2, z+1/2'
4 '-x, -y, -z'
5 '-x+1/2, -y, z+1/2'
6 '-x, y+1/2, -z'
7 'x+1/2, -y+1/2, -z+1/2'
8 'x, y, z'
loop_
_atom_type_symbol
_atom_type_oxidation_number
Fe2+ 2
Na1+ 1
O2- -2
H1+ 1
loop_
_atom_site_label
_atom_site_type_symbol
_atom_site_symmetry_multiplicity
_atom_site_Wyckoff_symbol
_atom_site_fract_x
_atom_site_fract_y
_atom_site_fract_z
_atom_site_B_iso_or_equiv
_atom_site_occupancy
_atom_site_attached_hydrogens
Fe1 Fe2+ 4 c 0.51611(4) 0.25 0.29293(3) 0.01402(11) 1 0
Fe2 Fe2+ 4 c 0.29827(4) 0.75 0.11449(3) 0.01337(10) 1 0
Na1 Na1+ 8 d 0.51053(10) 0.59201(8) 0.28044(7) 0.0300(2) 1 0
Na2 Na1+ 8 d 0.57284(8) 0.43252(8) 0.08722(7) 0.02007(19) 1 0
Na3 Na1+ 4 c 0.58673(11) 0.75 0.05273(9) 0.0207(3) 1 0
Na4 Na1+ 8 d 0.13150(8) 0.56173(8) -0.01331(7) 0.02047(19) 1 0
Na5 Na1+ 8 d 0.28540(8) 0.41928(8) 0.18021(8) 0.0245(2) 1 0
Na6 Na1+ 4 c 0.60898(11) 0.25 0.52114(9) 0.0202(3) 1 0
O1 O2- 8 d 0.40154(13) 0.59636(14) 0.10565(11) 0.0175(3) 1 0
O2 O2- 8 d 0.56072(13) 0.09677(14) 0.37203(11) 0.0171(3) 1 0
O3 O2- 4 c 0.10959(18) 0.75 0.11109(15) 0.0162(4) 1 0
O4 O2- 4 c 0.44210(19) 0.25 0.14810(15) 0.0160(4) 1 0
O5 O2- 8 d 0.25163(15) 0.41787(15) -0.12722(13) 0.0243(3) 1 0
H1 H1+ 8 d 0.240(2) 0.374(2) -0.1986(12) 0.036 1 0
loop_
_atom_site_aniso_label
_atom_site_aniso_type_symbol
_atom_site_aniso_U_11
_atom_site_aniso_U_22
_atom_site_aniso_U_33
_atom_site_aniso_U_12
_atom_site_aniso_U_13
_atom_site_aniso_U_23
Fe1 Fe2+ 0.0147(2) 0.0138(2) 0.0135(2) 0. -0.00117(15) 0.
Fe2 Fe2+ 0.0120(2) 0.0135(2) 0.0146(2) 0. -0.00009(16) 0.
Na1 Na1+ 0.0467(6) 0.0187(5) 0.0246(5) 0.0015(4) -0.0164(4) -0.0016(4)
Na2 Na1+ 0.0190(4) 0.0202(5) 0.0209(4) -0.0011(3) 0.0015(3) -0.0012(4)
Na3 Na1+ 0.0182(6) 0.0235(7) 0.0206(6) 0. -0.0002(5) 0.
Na4 Na1+ 0.0209(4) 0.0199(5) 0.0206(4) -0.0005(3) 0.0014(3) -0.0023(3)
Na5 Na1+ 0.0158(4) 0.0210(5) 0.0366(5) -0.0002(3) 0.0005(4) 0.0040(4)
Na6 Na1+ 0.0209(6) 0.0205(6) 0.0192(6) 0. -0.0022(5) 0.
O1 O2- 0.0180(7) 0.0157(8) 0.0189(7) 0.0022(5) 0.0014(6) 0.0006(6)
O2 O2- 0.0183(8) 0.0144(8) 0.0187(7) 0.0013(5) 0.0002(6) 0.0008(6)
O3 O2- 0.0124(10) 0.0160(11) 0.0203(10) 0. 0.0010(8) 0.
O4 O2- 0.0169(10) 0.0163(11) 0.0146(10) 0. -0.0015(8) 0.
O5 O2- 0.0236(8) 0.0237(9) 0.0256(8) 0.0009(6) -0.0009(6) -0.0070(7)
#End of TTdata_424558-ICSD