
#(C) 2019 by FIZ Karlsruhe - Leibniz Institute for Information Infrastructure.  All rights reserved.
data_424739-ICSD
_database_code_ICSD 424739
_audit_creation_date 2014-08-01
_chemical_name_systematic 'Disodium terbium orthophosphate tungstate'
_chemical_formula_structural 'Na2 Tb (P O4) (W O4)'
_chemical_formula_sum 'Na2 O8 P1 Tb1 W1'
_chemical_name_structure_type Na2YMoO4PO4
_exptl_crystal_density_diffrn 4.81
_cell_measurement_temperature 293.
_publ_section_title

;
Synthesis, crystal structure and optical properties of Na2 RE (P O4) (W O4)
(RE = Y, Tb-Lu)
;
loop_
_citation_id
_citation_journal_full
_citation_year
_citation_journal_volume
_citation_page_first
_citation_page_last
_citation_journal_id_ASTM
primary 'Dalton Transactions' 2012 41 12121 12128 DTARAF
loop_
_publ_author_name
'Daub, Michael'
'Lehner, Anna J.'
'Hoeppe, Henning A.'
_cell_length_a 17.988(4)
_cell_length_b 12.196(2)
_cell_length_c 6.8997(14)
_cell_angle_alpha 90.
_cell_angle_beta 90.
_cell_angle_gamma 90.
_cell_volume 1513.66
_cell_formula_units_Z 8
_symmetry_space_group_name_H-M 'I b c a'
_symmetry_Int_Tables_number 73
_refine_ls_R_factor_all 0.0169
loop_
_symmetry_equiv_pos_site_id
_symmetry_equiv_pos_as_xyz
1 'x, y+1/2, -z'
2 'x+1/2, -y, z'
3 '-x, y, z+1/2'
4 '-x, -y, -z'
5 '-x, -y+1/2, z'
6 '-x+1/2, y, -z'
7 'x, -y, -z+1/2'
8 'x, y, z'
9 'x+1/2, y, -z+1/2'
10 'x, -y+1/2, z+1/2'
11 '-x+1/2, y+1/2, z'
12 '-x+1/2, -y+1/2, -z+1/2'
13 '-x+1/2, -y, z+1/2'
14 '-x, y+1/2, -z+1/2'
15 'x+1/2, -y+1/2, -z'
16 'x+1/2, y+1/2, z+1/2'
loop_
_atom_type_symbol
_atom_type_oxidation_number
Na1+ 1
W6+ 6
Tb3+ 3
P5+ 5
O2- -2
loop_
_atom_site_label
_atom_site_type_symbol
_atom_site_symmetry_multiplicity
_atom_site_Wyckoff_symbol
_atom_site_fract_x
_atom_site_fract_y
_atom_site_fract_z
_atom_site_B_iso_or_equiv
_atom_site_occupancy
_atom_site_attached_hydrogens
Na1 Na1+ 16 f 0.59648(17) 0.1920(3) -0.2624(7) 0.0453(9) 1 0
W1 W6+ 8 c 0.429516(19) 0. 0.75 0.02021(14) 1 0
Tb1 Tb3+ 8 d 0.75 0.07253(3) 0. 0.00838(13) 1 0
P1 P5+ 8 d 0.25 0.18036(16) 0. 0.0090(4) 1 0
O1 O2- 16 f 0.1821(2) 0.2550(3) 0.0178(18) 0.0105(14) 1 0
O2 O2- 16 f 0.2417(3) 0.1022(3) -0.1733(6) 0.0142(9) 1 0
O3 O2- 16 f 0.3726(3) -0.0248(5) 0.9580(8) 0.0329(10) 1 0
O4 O2- 16 f 0.4833(3) -0.1185(5) 0.7040(9) 0.0329(10) 1 0
loop_
_atom_site_aniso_label
_atom_site_aniso_type_symbol
_atom_site_aniso_U_11
_atom_site_aniso_U_22
_atom_site_aniso_U_33
_atom_site_aniso_U_12
_atom_site_aniso_U_13
_atom_site_aniso_U_23
Na1 Na1+ 0.0236(15) 0.076(2) 0.0367(19) -0.0229(16) -0.0003(17) 0.000(2)
W1 W6+ 0.00870(18) 0.0226(2) 0.0293(2) 0. 0. 0.0026(2)
Tb1 Tb3+ 0.0132(2) 0.00672(19) 0.00525(19) 0. 0.00022(18) 0.
P1 P5+ 0.0140(9) 0.0058(8) 0.0073(9) 0. 0.0000(10) 0.
O1 O2- 0.012(2) 0.0120(19) 0.007(4) 0.0006(14) 0.002(3) -0.0021(16)
O2 O2- 0.022(2) 0.0115(18) 0.009(2) 0.0005(19) -0.002(2) -0.0002(16)
O3 O2- 0.028(2) 0.035(2) 0.036(3) 0.0092(16) -0.0014(16) 0.0057(18)
O4 O2- 0.028(2) 0.035(2) 0.036(3) 0.0092(16) -0.0014(16) 0.0057(18)
#End of TTdata_424739-ICSD