
#(C) 2019 by FIZ Karlsruhe - Leibniz Institute for Information Infrastructure.  All rights reserved.
data_424943-ICSD
_database_code_ICSD 424943
_audit_creation_date 2013-08-01
_chemical_name_systematic
'Disodium manganese difluoride phosphate fluorophosphate'
_chemical_formula_structural 'Na2 Mn F2 (P O3 (O0.5 F0.5))2'
_chemical_formula_sum 'F3 Mn1 Na2 O7 P2'
_exptl_crystal_density_diffrn 2.8
_cell_measurement_temperature 100.
_publ_section_title 'Manganese(III) fluorophosphate frameworks'
loop_
_citation_id
_citation_journal_full
_citation_year
_citation_journal_volume
_citation_page_first
_citation_page_last
_citation_journal_id_ASTM
primary 'Dalton Transactions' 2013 42 2302 2308 DTARAF
loop_
_publ_author_name
'Armstrong, J.A.'
'Williams, E.R.'
'Weller, M.T.'
_cell_length_a 4.694(5)
_cell_length_b 6.003(6)
_cell_length_c 7.771(8)
_cell_angle_alpha 102.444(15)
_cell_angle_beta 99.751(4)
_cell_angle_gamma 107.71(2)
_cell_volume 197.09
_cell_formula_units_Z 1
_symmetry_space_group_name_H-M 'P 1'
_symmetry_Int_Tables_number 1
_refine_ls_R_factor_all 0.0367
loop_
_symmetry_equiv_pos_site_id
_symmetry_equiv_pos_as_xyz
1 'x, y, z'
loop_
_atom_type_symbol
_atom_type_oxidation_number
F1- -1
O2- -2
F1- -1
O2- -2
F1- -1
O2- -2
Na1+ 1
O2- -2
Mn5+ 5
P5+ 5
O2- -2
Na1+ 1
loop_
_atom_site_label
_atom_site_type_symbol
_atom_site_symmetry_multiplicity
_atom_site_Wyckoff_symbol
_atom_site_fract_x
_atom_site_fract_y
_atom_site_fract_z
_atom_site_B_iso_or_equiv
_atom_site_occupancy
_atom_site_attached_hydrogens
F1 F1- 1 a 0.3229(15) 0.2187(12) 0.2161(8) 0.0200(13) 1 0
O1 O2- 1 a 0.2023(16) 0.4417(13) -0.0431(9) 0.0162(15) 1 0
O2 O2- 1 a -0.3239(17) 0.1965(13) -0.0163(9) 0.0167(15) 1 0
F2 F1- 1 a -0.2163(15) -0.2619(11) 0.0856(8) 0.0200(13) 1 0
O3 O2- 1 a -0.5633(18) -0.2422(14) 0.3238(11) 0.0242(17) 1 0
F3 F1- 1 a -0.2337(14) 0.3281(10) -0.2903(7) 0.0279(12) 1 0
O4 O2- 1 a 0.3380(17) -0.3373(12) 0.6143(9) 0.0283(15) 1 0
O5 O2- 1 a -0.1025(18) 0.5194(13) 0.3451(9) 0.0186(15) 1 0
Na1 Na1+ 1 a -0.1407(14) 0.1122(10) 0.3134(8) 0.0331(12) 1 0
O6 O2- 1 a -0.050(2) -0.0014(15) -0.2069(12) 0.0228(17) 1 0
Mn1 Mn5+ 1 a 0.5517(5) 0.4794(4) 0.1508(3) 0.01253(15) 1 0
P1 P5+ 1 a -0.1040(4) -0.7666(4) -0.1351(3) 0.0126(5) 1 0
P2 P5+ 1 a 0.2047(5) -0.2755(4) 0.4363(3) 0.0166(6) 1 0
O7 O2- 1 a 0.1714(19) -0.0287(14) 0.5244(11) 0.0198(17) 1 0
Na2 Na1+ 1 a 0.2326(14) -0.1548(10) -0.0195(8) 0.0335(12) 1 0
loop_
_atom_site_aniso_label
_atom_site_aniso_type_symbol
_atom_site_aniso_U_11
_atom_site_aniso_U_22
_atom_site_aniso_U_33
_atom_site_aniso_U_12
_atom_site_aniso_U_13
_atom_site_aniso_U_23
F1 F1- 0.019(3) 0.023(3) 0.022(3) 0.008(2) 0.007(3) 0.010(2)
O1 O2- 0.011(2) 0.014(2) 0.020(2) 0.0036(15) -0.0011(14) 0.0033(15)
O2 O2- 0.019(4) 0.015(3) 0.018(3) 0.008(3) 0.007(3) 0.002(2)
F2 F1- 0.017(3) 0.012(3) 0.029(3) -0.001(2) 0.011(3) 0.007(2)
O3 O2- 0.018(4) 0.021(4) 0.034(4) 0.004(3) 0.017(3) 0.005(3)
Na1 Na1+ 0.029(2) 0.018(2) 0.053(3) 0.0100(18) 0.010(2) 0.008(2)
O6 O2- 0.026(4) 0.021(4) 0.023(3) 0.009(3) 0.013(3) 0.003(3)
Mn1 Mn5+ 0.0108(3) 0.0103(3) 0.0166(3) 0.0030(2) 0.0044(2) 0.0042(2)
P1 P5+ 0.0101(12) 0.0127(12) 0.0145(12) 0.0033(10) 0.0052(10) 0.0023(9)
P2 P5+ 0.0167(15) 0.0160(14) 0.0158(13) 0.0063(12) 0.0020(11) 0.0030(10)
O7 O2- 0.022(4) 0.010(3) 0.024(3) 0.005(3) 0.011(3) -0.003(3)
Na2 Na1+ 0.032(2) 0.023(2) 0.052(3) 0.0075(19) 0.015(2) 0.023(2)
#End of TTdata_424943-ICSD