
#(C) 2019 by FIZ Karlsruhe - Leibniz Institute for Information Infrastructure.  All rights reserved.
data_424960-ICSD
_database_code_ICSD 424960
_audit_creation_date 2016-08-01
_chemical_name_systematic
'Dodecasodium trimanganese(II,III) octafluoride hexakis(sulfate(VI))'
_chemical_formula_structural 'Na12 Mn3 F8 (S O4)6'
_chemical_formula_sum 'F8 Mn3 Na12 O24 S6'
_exptl_crystal_density_diffrn 2.88
_cell_measurement_temperature 100.
_publ_section_title

;
Direct hydrofluorothermal synthesis of sodium transition metal fluorosulfates
as possible Na-ion battery cathode materials
;
loop_
_citation_id
_citation_journal_full
_citation_year
_citation_journal_volume
_citation_page_first
_citation_page_last
_citation_journal_id_ASTM
primary 'Chemical Communications (Cambridge, United Kingdom)' 2013 49 2121 2123
CHCOFS
loop_
_publ_author_name
'Wang, Qianlong'
'Madsen, Alex'
'Owen, John R.'
'Weller, Mark T.'
_cell_length_a 9.507(4)
_cell_length_b 9.547(5)
_cell_length_c 9.639(5)
_cell_angle_alpha 113.800(7)
_cell_angle_beta 105.154(4)
_cell_angle_gamma 108.9540(10)
_cell_volume 674.71
_cell_formula_units_Z 1
_symmetry_space_group_name_H-M 'P -1'
_symmetry_Int_Tables_number 2
_refine_ls_R_factor_all 0.0216
loop_
_symmetry_equiv_pos_site_id
_symmetry_equiv_pos_as_xyz
1 '-x, -y, -z'
2 'x, y, z'
loop_
_atom_type_symbol
_atom_type_oxidation_number
Na1+ 1
F1- -1
O2- -2
Na1+ 1
Mn2+ 2.667
S6+ 6
Na1+ 1
F1- -1
loop_
_atom_site_label
_atom_site_type_symbol
_atom_site_symmetry_multiplicity
_atom_site_Wyckoff_symbol
_atom_site_fract_x
_atom_site_fract_y
_atom_site_fract_z
_atom_site_B_iso_or_equiv
_atom_site_occupancy
_atom_site_attached_hydrogens
Na1 Na1+ 2 i 0.30227(17) 0.94845(16) 0.79614(16) 0.0238(3) 1 0
Na2 Na1+ 2 i -0.15659(18) -0.14729(16) 0.55824(16) 0.0296(4) 1 0
F1 F1- 2 i 0.1654(2) 0.4289(2) 0.4950(2) 0.0190(4) 1 0
F2 F1- 2 i 0.0621(2) -0.0171(2) 0.8278(2) 0.0165(4) 1 0
F3 F1- 2 i 0.1361(2) 0.6560(2) 0.7347(2) 0.0175(4) 1 0
O1 O2- 2 i 0.3262(3) 0.6106(3) 1.0276(3) 0.0211(5) 1 0
O2 O2- 2 i 0.4296(3) 0.7419(2) 1.3296(2) 0.0164(5) 1 0
O3 O2- 2 i 0.0523(3) 0.2105(3) 0.6416(3) 0.0292(6) 1 0
O4 O2- 2 i 0.5803(3) 0.7097(3) 0.6378(3) 0.0278(6) 1 0
O5 O2- 2 i 0.4681(3) 0.5078(3) 1.1709(3) 0.0205(5) 1 0
O6 O2- 2 i 0.6233(3) 0.7898(3) 1.2121(3) 0.0201(5) 1 0
O7 O2- 2 i -0.2336(3) 0.0699(2) 0.5799(2) 0.0162(5) 1 0
O8 O2- 2 i 0.5503(3) 0.8472(3) 0.8934(3) 0.0265(6) 1 0
O9 O2- 2 i -0.0472(3) 0.3681(3) 0.8157(3) 0.0265(6) 1 0
O10 O2- 2 i -0.1373(3) 0.2970(3) 0.5263(3) 0.0233(6) 1 0
O11 O2- 2 i 0.5115(3) 0.9433(2) 0.7000(2) 0.0158(5) 1 0
O12 O2- 2 i 0.7847(3) 1.0045(3) 0.8655(3) 0.0208(5) 1 0
Na3 Na1+ 2 i -0.11137(16) 0.32031(15) 1.01627(15) 0.0197(3) 1 0
Mn1 Mn2+ 1 g 0. 0.5 0.5 0.01192(16) 1 0
Mn2 Mn2+ 1 a 0. 0. 1. 0.01136(16) 1 0
Mn3 Mn2+ 1 f 0.5 1. 1.5 0.01310(16) 1 0
S1 S6+ 2 i -0.09058(10) 0.23760(10) 0.64330(10) 0.01405(18) 1 0
S2 S6+ 2 i 0.46464(10) 0.66531(10) 1.18396(9) 0.01175(18) 1 0
S3 S6+ 2 i 0.60507(10) 0.87344(10) 0.77291(9) 0.01327(18) 1 0
Na4 Na1+ 2 i 0.33735(16) 0.57283(15) 0.78371(14) 0.0164(3) 1 0
Na5 Na1+ 2 i 0.32571(17) 0.49931(15) 0.36583(15) 0.0232(3) 1 0
Na6 Na1+ 2 i 0.21767(16) 0.28179(15) 0.91775(15) 0.0210(3) 1 0
F4 F1- 2 i 0.1037(2) 0.2421(2) 1.0973(2) 0.0164(4) 1 0
loop_
_atom_site_aniso_label
_atom_site_aniso_type_symbol
_atom_site_aniso_U_11
_atom_site_aniso_U_22
_atom_site_aniso_U_33
_atom_site_aniso_U_12
_atom_site_aniso_U_13
_atom_site_aniso_U_23
Na1 Na1+ 0.0225(8) 0.0218(7) 0.0283(8) 0.0112(7) 0.0136(7) 0.0128(7)
Na2 Na1+ 0.0331(9) 0.0277(8) 0.0293(8) 0.0195(8) 0.0143(8) 0.0126(7)
F1 F1- 0.0190(11) 0.0216(10) 0.0192(10) 0.0104(10) 0.0106(9) 0.0115(9)
F2 F1- 0.0188(11) 0.0188(10) 0.0144(9) 0.0094(9) 0.0097(9) 0.0096(8)
F3 F1- 0.0172(11) 0.0186(10) 0.0135(9) 0.0082(9) 0.0046(9) 0.0078(8)
O1 O2- 0.0175(13) 0.0318(14) 0.0135(12) 0.0152(12) 0.0047(11) 0.0108(11)
O2 O2- 0.0229(14) 0.0124(12) 0.0156(12) 0.0081(11) 0.0141(11) 0.0060(10)
O3 O2- 0.0204(15) 0.0531(17) 0.0303(14) 0.0243(14) 0.0162(13) 0.0275(14)
O4 O2- 0.0383(17) 0.0174(13) 0.0168(13) 0.0177(13) 0.0034(12) 0.0027(11)
O5 O2- 0.0257(15) 0.0150(12) 0.0258(13) 0.0134(12) 0.0134(12) 0.0111(11)
O6 O2- 0.0135(13) 0.0182(13) 0.0261(13) 0.0050(11) 0.0143(12) 0.0087(11)
O7 O2- 0.0130(13) 0.0099(12) 0.0218(12) 0.0029(11) 0.0063(11) 0.0083(10)
O8 O2- 0.0303(16) 0.0353(15) 0.0226(13) 0.0127(14) 0.0170(13) 0.0221(12)
O9 O2- 0.0236(15) 0.0207(13) 0.0170(13) 0.0010(12) 0.0101(12) 0.0025(11)
O10 O2- 0.0135(13) 0.0271(13) 0.0291(13) 0.0043(12) 0.0054(12) 0.0219(12)
O11 O2- 0.0140(13) 0.0214(12) 0.0169(12) 0.0124(11) 0.0054(11) 0.0122(10)
O12 O2- 0.0075(12) 0.0206(13) 0.0278(13) 0.0028(11) 0.0004(11) 0.0156(11)
Na3 Na1+ 0.0213(8) 0.0210(7) 0.0224(7) 0.0128(7) 0.0118(7) 0.0131(6)
Mn1 Mn2+ 0.0095(4) 0.0141(4) 0.0123(4) 0.0063(3) 0.0044(3) 0.0071(3)
Mn2 Mn2+ 0.0105(4) 0.0115(4) 0.0126(4) 0.0053(3) 0.0052(3) 0.0070(3)
Mn3 Mn2+ 0.0135(4) 0.0115(4) 0.0115(4) 0.0061(3) 0.0034(3) 0.0052(3)
S1 S6+ 0.0105(4) 0.0187(5) 0.0133(4) 0.0065(4) 0.0050(4) 0.0096(4)
S2 S6+ 0.0109(4) 0.0127(4) 0.0120(4) 0.0070(4) 0.0049(4) 0.0061(4)
S3 S6+ 0.0118(4) 0.0141(4) 0.0125(4) 0.0059(4) 0.0030(4) 0.0077(4)
Na4 Na1+ 0.0177(7) 0.0230(7) 0.0136(6) 0.0140(7) 0.0065(6) 0.0111(6)
Na5 Na1+ 0.0236(8) 0.0226(7) 0.0217(7) 0.0074(7) 0.0106(7) 0.0133(6)
Na6 Na1+ 0.0190(8) 0.0198(7) 0.0180(7) 0.0058(7) 0.0088(6) 0.0076(6)
F4 F1- 0.0134(10) 0.0124(9) 0.0207(10) 0.0053(9) 0.0064(9) 0.0083(8)
#End of TTdata_424960-ICSD