
#(C) 2019 by FIZ Karlsruhe - Leibniz Institute for Information Infrastructure.  All rights reserved.
data_425094-ICSD
_database_code_ICSD 425094
_audit_creation_date 2014-02-01
_chemical_name_systematic 'Sodium calcium iron phosphate (2.5/1/1.5/3)'
_chemical_formula_structural 'Na2.5 Ca Fe1.5 (P O4)3'
_chemical_formula_sum 'Ca1 Fe1.5 Na2.5 O12 P3'
_chemical_name_structure_type Alluaudite
_exptl_crystal_density_diffrn 3.31
_cell_measurement_temperature 293.
_publ_section_title

;
Phase relations in M(I)2 O - P2 O5 - Fe2 O3 - Ca O (Ca F2) (M(I) = Na, K)
high-temperature solutions and the structure of Na2.5 Ca Fe1.5  (P O4)3
;
loop_
_citation_id
_citation_journal_full
_citation_year
_citation_journal_volume
_citation_page_first
_citation_page_last
_citation_journal_id_ASTM
primary 'Inorganic Materials' 2013 49 709 714 INOMAF
loop_
_publ_author_name
'Strutynska, N.Yu.'
'Kovba, Ya.Yu.'
'Zatovsky, I.V.'
'Baumer, V.N.'
'Ogorodnyk, I.V.'
'Slobodyanik, N.S.'
_cell_length_a 12.4263(14)
_cell_length_b 12.7567(9)
_cell_length_c 6.4930(7)
_cell_angle_alpha 90
_cell_angle_beta 114.810(13)
_cell_angle_gamma 90
_cell_volume 934.26
_cell_formula_units_Z 4
_symmetry_space_group_name_H-M 'C 1 2/c 1'
_symmetry_Int_Tables_number 15
_refine_ls_R_factor_all 0.0596
loop_
_symmetry_equiv_pos_site_id
_symmetry_equiv_pos_as_xyz
1 'x, -y, z+1/2'
2 '-x, -y, -z'
3 '-x, y, -z+1/2'
4 'x, y, z'
5 'x+1/2, -y+1/2, z+1/2'
6 '-x+1/2, -y+1/2, -z'
7 '-x+1/2, y+1/2, -z+1/2'
8 'x+1/2, y+1/2, z'
loop_
_atom_type_symbol
_atom_type_oxidation_number
Na1+ 1
Ca2+ 2
Na1+ 1
Fe3+ 3
Ca2+ 2
P5+ 5
O2- -2
loop_
_atom_site_label
_atom_site_type_symbol
_atom_site_symmetry_multiplicity
_atom_site_Wyckoff_symbol
_atom_site_fract_x
_atom_site_fract_y
_atom_site_fract_z
_atom_site_B_iso_or_equiv
_atom_site_occupancy
_atom_site_attached_hydrogens
Na1 Na1+ 4 e 0 0.26978(7) 0.25 0.0201(2) 0.50020(10) 0
Ca1 Ca2+ 4 e 0 0.26978(7) 0.25 0.0201(2) 0.4998 0
Na2 Na1+ 4 b 0.5 0 0 0.0311(4) 1 0
Na3 Na1+ 4 e 0 0.0201(2) 0.75 0.0549(7) 1 0
Fe1 Fe3+ 8 f 0.22952(4) 0.15495(4) 0.15000(7) 0.02715(11) 0.7502 0
Ca2 Ca2+ 8 f 0.22952(4) 0.15495(4) 0.15000(7) 0.02715(11) 0.2497 0
P1 P5+ 4 e 0 0.27310(7) 0.75 0.0239(2) 1 0
P2 P5+ 8 f 0.23990(6) -0.10241(6) 0.13431(10) 0.02271(16) 1 0
O1 O2- 8 f 0.05598(16) 0.20294(15) 0.9600(3) 0.0254(5) 1 0
O2 O2- 8 f 0.0893(2) 0.34475(18) 0.7105(4) 0.0464(7) 1 0
O3 O2- 8 f 0.36707(18) -0.08361(18) 0.1749(4) 0.0361(6) 1 0
O4 O2- 8 f 0.1771(2) 0.0023(2) 0.1214(4) 0.0469(7) 1 0
O5 O2- 8 f 0.1746(2) -0.16212(17) -0.0920(4) 0.0381(6) 1 0
O6 O2- 8 f 0.23716(18) -0.17108(17) 0.3283(3) 0.0301(5) 1 0
loop_
_atom_site_aniso_label
_atom_site_aniso_type_symbol
_atom_site_aniso_U_11
_atom_site_aniso_U_22
_atom_site_aniso_U_33
_atom_site_aniso_U_12
_atom_site_aniso_U_13
_atom_site_aniso_U_23
Na1 Na1+ 0.0235(3) 0.0131(4) 0.0260(4) 0 0.0128(3) 0
Ca1 Ca2+ 0.0235(3) 0.0131(4) 0.0260(4) 0 0.0128(3) 0
Na2 Na1+ 0.0385(8) 0.0170(7) 0.0246(7) -0.0022(6) 0.0003(6) 0.0007(6)
Na3 Na1+ 0.0453(11) 0.0565(13) 0.0486(12) 0 0.0057(9) 0
Fe1 Fe3+ 0.02855(17) 0.0302(2) 0.02550(18) -0.00714(15) 0.01413(14) -0.00388(15)
Ca2 Ca2+ 0.02855(17) 0.0302(2) 0.02550(18) -0.00714(15) 0.01413(14) -0.00388(15)
P1 P5+ 0.0362(4) 0.0153(4) 0.0158(4) 0 0.0067(3) 0
P2 P5+ 0.0312(3) 0.0187(3) 0.0160(2) 0.0027(2) 0.0078(2) -0.0001(2)
O1 O2- 0.0296(8) 0.0256(9) 0.0183(7) -0.0027(7) 0.0075(6) 0.0067(7)
O2 O2- 0.0676(14) 0.0306(11) 0.0352(11) -0.0148(10) 0.0160(10) 0.0115(8)
O3 O2- 0.0400(9) 0.0286(10) 0.0425(10) -0.0061(8) 0.0201(8) -0.0013(8)
O4 O2- 0.0620(12) 0.0438(12) 0.0334(11) 0.0305(10) 0.0184(9) 0.0073(9)
O5 O2- 0.0556(12) 0.0263(10) 0.0205(9) -0.0125(9) 0.0043(9) -0.0036(7)
O6 O2- 0.0342(8) 0.0343(11) 0.0256(8) 0.0035(8) 0.0161(7) 0.0070(7)
#End of TTdata_425094-ICSD