
#(C) 2019 by FIZ Karlsruhe - Leibniz Institute for Information Infrastructure.  All rights reserved.
data_425448-ICSD
_database_code_ICSD 425448
_audit_creation_date 2013-08-01
_chemical_name_systematic 'Dicalcium sodium iodate(VII)'
_chemical_formula_structural 'Ca2 Na (I O6)'
_chemical_formula_sum 'Ca2 I1 Na1 O6'
_chemical_name_structure_type Perovskite-Na3AlF6
_exptl_crystal_density_diffrn 4.26
_cell_measurement_temperature 293.
_publ_section_title
'The periodate-based double perovskites M2 Na I O6 (M = Ca, Sr, and Ba)'
loop_
_citation_id
_citation_journal_full
_citation_year
_citation_journal_volume
_citation_page_first
_citation_page_last
_citation_journal_id_ASTM
primary 'Zeitschrift fuer Anorganische und Allgemeine Chemie (1950) (DE)' 2013
639 892 898 ZAACAB
loop_
_publ_author_name
'Kubel, Frank'
'Wandl, Nicole'
'Pantazi, Mariana'
'D'Anna, Vincenza'
'Hagemann, Hans'
_cell_length_a 5.53758(4)
_cell_length_b 5.79110(5)
_cell_length_c 9.60551(7)
_cell_angle_alpha 90.
_cell_angle_beta 124.3004(5)
_cell_angle_gamma 90.
_cell_volume 254.47
_cell_formula_units_Z 2
_symmetry_space_group_name_H-M 'P 1 21/c 1'
_symmetry_Int_Tables_number 14
_refine_ls_R_factor_all 0.045
loop_
_symmetry_equiv_pos_site_id
_symmetry_equiv_pos_as_xyz
1 'x, -y+1/2, z+1/2'
2 '-x, -y, -z'
3 '-x, y+1/2, -z+1/2'
4 'x, y, z'
loop_
_atom_type_symbol
_atom_type_oxidation_number
Na1+ 1
I7+ 7
Ca2+ 2
O2- -2
loop_
_atom_site_label
_atom_site_type_symbol
_atom_site_symmetry_multiplicity
_atom_site_Wyckoff_symbol
_atom_site_fract_x
_atom_site_fract_y
_atom_site_fract_z
_atom_site_B_iso_or_equiv
_atom_site_occupancy
_atom_site_attached_hydrogens
Na1 Na1+ 2 d .5 . .5 .0055(8) 1. 0
I1 I7+ 2 a . . . .00312(18) 1. 0
Ca1 Ca2+ 4 e .2712(3) .44321(19) .25468(19) .0072(4) 1. 0
O1 O2- 4 e .2434(9) .7229(7) .0734(5) .0130(8) 1. 0
O2 O2- 4 e .1127(8) .0562(7) .2252(5) .0130(8) 1. 0
O3 O2- 4 e .3277(10) .1827(7) .0453(6) .0130(8) 1. 0
#End of TTdata_425448-ICSD