
#(C) 2019 by FIZ Karlsruhe - Leibniz Institute for Information Infrastructure.  All rights reserved.
data_425447-ICSD
_database_code_ICSD 425447
_audit_creation_date 2013-08-01
_chemical_name_systematic 'Distrontium sodium iodate(VII)'
_chemical_formula_structural 'Sr2 Na (I O6)'
_chemical_formula_sum 'I1 Na1 O6 Sr2'
_chemical_name_structure_type Perovskite-Na3AlF6
_exptl_crystal_density_diffrn 5.17
_cell_measurement_temperature 293.
_publ_section_title
'The periodate-based double perovskites M2 Na I O6 (M = Ca, Sr, and Ba)'
loop_
_citation_id
_citation_journal_full
_citation_year
_citation_journal_volume
_citation_page_first
_citation_page_last
_citation_journal_id_ASTM
primary 'Zeitschrift fuer Anorganische und Allgemeine Chemie (1950) (DE)' 2013
639 892 898 ZAACAB
loop_
_publ_author_name
'Kubel, Frank'
'Wandl, Nicole'
'Pantazi, Mariana'
'D'Anna, Vincenza'
'Hagemann, Hans'
_cell_length_a 5.75996(5)
_cell_length_b 5.77585(5)
_cell_length_c 9.97423(8)
_cell_angle_alpha 90.
_cell_angle_beta 125.3618(5)
_cell_angle_gamma 90.
_cell_volume 270.61
_cell_formula_units_Z 2
_symmetry_space_group_name_H-M 'P 1 21/c 1'
_symmetry_Int_Tables_number 14
_refine_ls_R_factor_all 0.026
loop_
_symmetry_equiv_pos_site_id
_symmetry_equiv_pos_as_xyz
1 'x, -y+1/2, z+1/2'
2 '-x, -y, -z'
3 '-x, y+1/2, -z+1/2'
4 'x, y, z'
loop_
_atom_type_symbol
_atom_type_oxidation_number
Na1+ 1
I7+ 7
Sr2+ 2
O2- -2
loop_
_atom_site_label
_atom_site_type_symbol
_atom_site_symmetry_multiplicity
_atom_site_Wyckoff_symbol
_atom_site_fract_x
_atom_site_fract_y
_atom_site_fract_z
_atom_site_B_iso_or_equiv
_atom_site_occupancy
_atom_site_attached_hydrogens
Na1 Na1+ 2 d .5 . .5 .0040(11) 1. 0
I1 I7+ 2 a . . . .00310(18) 1. 0
Sr1 Sr2+ 4 e .2549(4) .47043(13) .2513(3) .0084(2) 1. 0
O1 O2- 4 e .240(3) .7330(17) .0401(17) .0115(11) 1. 0
O2 O2- 4 e .1678(22) .0107(8) .2340(9) .0115(11) 1. 0
O3 O2- 4 e .300(3) .1906(18) .0292(18) .0115(11) 1. 0
#End of TTdata_425447-ICSD