
#(C) 2019 by FIZ Karlsruhe - Leibniz Institute for Information Infrastructure.  All rights reserved.
data_425628-ICSD
_database_code_ICSD 425628
_audit_creation_date 2015-02-01
_chemical_name_systematic 'Sodium iron bis(fluorophosphate)'
_chemical_formula_structural 'Na Fe (P O3 F)2'
_chemical_formula_sum 'F2 Fe1 Na1 O6 P2'
_exptl_crystal_density_diffrn 3.08
_cell_measurement_temperature 100.
_publ_section_title 'Iron fluorophosphates'
loop_
_citation_id
_citation_journal_full
_citation_year
_citation_journal_volume
_citation_page_first
_citation_page_last
_citation_journal_id_ASTM
primary 'Dalton Transactions' 2013 42 10715 10724 DTARAF
loop_
_publ_author_name
'Keates, Adam C.'
'Armstrong, Jennifer A.'
'Weller, Mark T.'
_cell_length_a 6.489(7)
_cell_length_b 14.201(5)
_cell_length_c 6.464(3)
_cell_angle_alpha 90.
_cell_angle_beta 96.26(5)
_cell_angle_gamma 90.
_cell_volume 592.1
_cell_formula_units_Z 4
_symmetry_space_group_name_H-M 'P 1 21/c 1'
_symmetry_Int_Tables_number 14
_refine_ls_R_factor_all 0.0438
loop_
_symmetry_equiv_pos_site_id
_symmetry_equiv_pos_as_xyz
1 'x, -y+1/2, z+1/2'
2 '-x, -y, -z'
3 '-x, y+1/2, -z+1/2'
4 'x, y, z'
loop_
_atom_type_symbol
_atom_type_oxidation_number
O2- -2
F1- -1
O2- -2
Na1+ 1
F1- -1
P5+ 5
Fe3+ 3
loop_
_atom_site_label
_atom_site_type_symbol
_atom_site_symmetry_multiplicity
_atom_site_Wyckoff_symbol
_atom_site_fract_x
_atom_site_fract_y
_atom_site_fract_z
_atom_site_B_iso_or_equiv
_atom_site_occupancy
_atom_site_attached_hydrogens
O1 O2- 4 e 0.2591(4) 0.46785(18) 0.1497(4) 0.0141(6) 1 0
O2 O2- 4 e 0.0348(4) 0.38240(19) -0.1384(4) 0.0182(6) 1 0
O3 O2- 4 e 0.2540(4) 0.60153(16) 0.8313(4) 0.0144(6) 1 0
O4 O2- 4 e 0.4147(4) 0.39917(16) 0.8371(4) 0.0141(5) 1 0
F1 F1- 4 e 0.0153(4) 0.33913(17) 0.4305(3) 0.0228(5) 1 0
O5 O2- 4 e 0.3042(4) 0.75416(19) 0.6447(4) 0.0173(6) 1 0
O6 O2- 4 e 0.3116(4) 0.59823(16) 0.4585(4) 0.0136(5) 1 0
Na1 Na1+ 4 e 0.3098(3) 0.42368(12) 0.4953(2) 0.0235(4) 1 0
F2 F1- 4 e 0.2868(3) 0.29940(16) 0.1076(3) 0.0199(5) 1 0
P1 P5+ 4 e 0.22661(14) 0.65511(6) 0.63034(13) 0.0122(3) 1 0
P2 P5+ 4 e 0.24601(14) 0.39286(6) -0.01822(14) 0.0119(3) 1 0
Fe1 Fe3+ 4 e 0.27185(8) 0.60848(3) 0.13612(7) 0.0119(2) 1 0
loop_
_atom_site_aniso_label
_atom_site_aniso_type_symbol
_atom_site_aniso_U_11
_atom_site_aniso_U_22
_atom_site_aniso_U_33
_atom_site_aniso_U_12
_atom_site_aniso_U_13
_atom_site_aniso_U_23
O1 O2- 0.0198(13) 0.0050(12) 0.0174(12) -0.0013(10) 0.0012(11) -0.0011(9)
O2 O2- 0.0175(13) 0.0159(13) 0.0211(13) -0.0004(10) 0.0020(11) -0.0047(10)
O3 O2- 0.0250(14) 0.0052(12) 0.0135(11) 0.0005(9) 0.0038(11) -0.0001(9)
O4 O2- 0.0175(13) 0.0077(12) 0.0174(12) -0.0002(9) 0.0032(11) 0.0008(9)
F1 F1- 0.0247(12) 0.0167(12) 0.0274(12) 0.0025(9) 0.0040(10) -0.0009(9)
O5 O2- 0.0286(14) 0.0040(11) 0.0199(13) -0.0015(10) 0.0050(11) 0.0012(10)
O6 O2- 0.0210(13) 0.0061(11) 0.0138(12) 0.0015(9) 0.0024(10) 0.0004(9)
Na1 Na1+ 0.0271(9) 0.0216(9) 0.0208(8) -0.0022(7) -0.0016(7) 0.0042(6)
F2 F1- 0.0278(12) 0.0079(10) 0.0245(11) 0.0013(9) 0.0046(9) 0.0021(9)
P1 P5+ 0.0183(5) 0.0033(4) 0.0153(4) 0.0003(3) 0.0028(3) -0.0001(3)
P2 P5+ 0.0165(5) 0.0037(5) 0.0157(5) 0.0000(3) 0.0025(4) -0.0002(3)
Fe1 Fe3+ 0.0169(3) 0.0034(3) 0.0155(3) -0.00014(18) 0.0023(2) -0.00016(16)
#End of TTdata_425628-ICSD