
#(C) 2019 by FIZ Karlsruhe - Leibniz Institute for Information Infrastructure.  All rights reserved.
data_425697-ICSD
_database_code_ICSD 425697
_audit_creation_date 2013-08-01
_chemical_name_systematic 'Sodium chlorate(VII) dihydrate'
_chemical_formula_structural 'Na Cl O4 (H2 O)2'
_chemical_formula_sum 'H4 Cl1 Na1 O6'
_exptl_crystal_density_diffrn 1.94
_cell_measurement_temperature 200.
_publ_section_title
'Freezing and hydrate formation in aqueous sodium perchlorate solutions'
loop_
_citation_id
_citation_journal_full
_citation_year
_citation_journal_volume
_citation_page_first
_citation_page_last
_citation_journal_id_ASTM
primary 'Zeitschrift fuer Anorganische und Allgemeine Chemie (1950) (DE)' 2013
639 922 927 ZAACAB
loop_
_publ_author_name
'Hennings, Erik'
'Heinz, Jacob'
'Schmidt, Horst'
'Voigt, Wolfgang'
_cell_length_a 6.0882(14)
_cell_length_b 7.0704(16)
_cell_length_c 7.5622(19)
_cell_angle_alpha 63.721(17)
_cell_angle_beta 84.308(19)
_cell_angle_gamma 68.700(17)
_cell_volume 271.2
_cell_formula_units_Z 2
_symmetry_space_group_name_H-M 'P -1'
_symmetry_Int_Tables_number 2
_refine_ls_R_factor_all 0.0417
loop_
_symmetry_equiv_pos_site_id
_symmetry_equiv_pos_as_xyz
1 '-x, -y, -z'
2 'x, y, z'
loop_
_atom_type_symbol
_atom_type_oxidation_number
Cl7+ 7
Na1+ 1
O2- -2
H1+ 1
loop_
_atom_site_label
_atom_site_type_symbol
_atom_site_symmetry_multiplicity
_atom_site_Wyckoff_symbol
_atom_site_fract_x
_atom_site_fract_y
_atom_site_fract_z
_atom_site_B_iso_or_equiv
_atom_site_occupancy
_atom_site_attached_hydrogens
Cl1 Cl7+ 2 i 0.21992(10) 0.64371(10) 0.21972(8) 0.0198(3) 1 0
Na1 Na1+ 2 i 0.20305(18) 0.11300(18) 0.51792(16) 0.0251(4) 1 0
O1 O2- 2 i 0.2826(4) 0.4582(3) 0.4142(3) 0.0303(5) 1 0
O2 O2- 2 i 0.4211(4) 0.7091(4) 0.1491(3) 0.0361(6) 1 0
O3 O2- 2 i 0.0332(5) 0.8300(4) 0.2283(3) 0.0483(7) 1 0
O4 O2- 2 i 0.1533(5) 0.5721(4) 0.0909(3) 0.0489(7) 1 0
O5 O2- 2 i 0.4468(4) 0.0430(3) 0.2716(3) 0.0253(5) 1 0
O6 O2- 2 i 0.1583(3) -0.2476(3) 0.6657(3) 0.0259(5) 1 0
H1 H1+ 2 i 0.432(8) 0.157(4) 0.171(4) 0.059(13) 1 0
H2 H1+ 2 i 0.443(8) -0.050(5) 0.238(5) 0.053(12) 1 0
H3 H1+ 2 i 0.255(6) -0.359(5) 0.657(5) 0.040(10) 1 0
H4 H1+ 2 i 0.152(6) -0.292(6) 0.786(3) 0.035(10) 1 0
loop_
_atom_site_aniso_label
_atom_site_aniso_type_symbol
_atom_site_aniso_U_11
_atom_site_aniso_U_22
_atom_site_aniso_U_33
_atom_site_aniso_U_12
_atom_site_aniso_U_13
_atom_site_aniso_U_23
Cl1 Cl7+ 0.0250(4) 0.0208(4) 0.0174(4) -0.0118(3) 0.0067(2) -0.0099(3)
Na1 Na1+ 0.0215(6) 0.0277(6) 0.0310(7) -0.0123(5) 0.0070(5) -0.0153(5)
O1 O2- 0.0422(12) 0.0246(10) 0.0222(10) -0.0155(9) 0.0012(9) -0.0056(9)
O2 O2- 0.0357(12) 0.0391(12) 0.0413(13) -0.0253(10) 0.0169(10) -0.0176(10)
O3 O2- 0.0485(15) 0.0343(13) 0.0344(13) 0.0039(11) 0.0182(11) -0.0094(10)
O4 O2- 0.085(2) 0.0566(15) 0.0279(12) -0.0489(15) 0.0005(12) -0.0183(11)
O5 O2- 0.0353(11) 0.0246(10) 0.0225(10) -0.0169(9) 0.0060(8) -0.0118(9)
O6 O2- 0.0267(11) 0.0227(11) 0.0258(11) -0.0073(9) 0.0038(8) -0.0100(9)
#End of TTdata_425697-ICSD