
#(C) 2019 by FIZ Karlsruhe - Leibniz Institute for Information Infrastructure.  All rights reserved.
data_425630-ICSD
_database_code_ICSD 425630
_audit_creation_date 2015-02-01
_chemical_name_systematic 'Sodium diiron bis(phosphate) trifluoride'
_chemical_formula_structural 'Na2.67 Fe2 (P O4)2 F3'
_chemical_formula_sum 'F3 Fe2 Na2.67 O8 P2'
_exptl_crystal_density_diffrn 3.22
_cell_measurement_temperature 120.
_publ_section_title 'Iron fluorophosphates'
loop_
_citation_id
_citation_journal_full
_citation_year
_citation_journal_volume
_citation_page_first
_citation_page_last
_citation_journal_id_ASTM
primary 'Dalton Transactions' 2013 42 10715 10724 DTARAF
loop_
_publ_author_name
'Keates, Adam C.'
'Armstrong, Jennifer A.'
'Weller, Mark T.'
_cell_length_a 6.3845(4)
_cell_length_b 6.3845(4)
_cell_length_c 10.6320(10)
_cell_angle_alpha 90.
_cell_angle_beta 90.
_cell_angle_gamma 90.
_cell_volume 433.37
_cell_formula_units_Z 2
_symmetry_space_group_name_H-M 'I 4/m m m'
_symmetry_Int_Tables_number 139
_refine_ls_R_factor_all 0.0369
loop_
_symmetry_equiv_pos_site_id
_symmetry_equiv_pos_as_xyz
1 'y, x, -z'
2 '-y, -x, -z'
3 '-y, x, -z'
4 'y, -x, -z'
5 '-x, y, -z'
6 'x, -y, -z'
7 'x, y, -z'
8 '-x, -y, -z'
9 '-y, -x, z'
10 'y, x, z'
11 'y, -x, z'
12 '-y, x, z'
13 'x, -y, z'
14 '-x, y, z'
15 '-x, -y, z'
16 'x, y, z'
17 'y+1/2, x+1/2, -z+1/2'
18 '-y+1/2, -x+1/2, -z+1/2'
19 '-y+1/2, x+1/2, -z+1/2'
20 'y+1/2, -x+1/2, -z+1/2'
21 '-x+1/2, y+1/2, -z+1/2'
22 'x+1/2, -y+1/2, -z+1/2'
23 'x+1/2, y+1/2, -z+1/2'
24 '-x+1/2, -y+1/2, -z+1/2'
25 '-y+1/2, -x+1/2, z+1/2'
26 'y+1/2, x+1/2, z+1/2'
27 'y+1/2, -x+1/2, z+1/2'
28 '-y+1/2, x+1/2, z+1/2'
29 'x+1/2, -y+1/2, z+1/2'
30 '-x+1/2, y+1/2, z+1/2'
31 '-x+1/2, -y+1/2, z+1/2'
32 'x+1/2, y+1/2, z+1/2'
loop_
_atom_type_symbol
_atom_type_oxidation_number
Na1+ 1
F1- -1
O2- -2
F1- -1
Fe3+ 3
P5+ 5
loop_
_atom_site_label
_atom_site_type_symbol
_atom_site_symmetry_multiplicity
_atom_site_Wyckoff_symbol
_atom_site_fract_x
_atom_site_fract_y
_atom_site_fract_z
_atom_site_B_iso_or_equiv
_atom_site_occupancy
_atom_site_attached_hydrogens
Na1 Na1+ 8 h 0.7208(8) 0.7208(8) 0. 0.043(3) 0.667(18) 0
F1 F1- 2 a 1. 1. 0. 0.0084(19) 1 0
O1 O2- 16 n 0.6920(7) 1. -0.1638(4) 0.0151(10) 1 0
F2 F1- 4 e 0.5 0.5 -0.1327(7) 0.0213(17) 1 0
Fe1 Fe3+ 4 e 1. 1. 0.18683(15) 0.0081(5) 1 0
P1 P5+ 4 d 0.5 1. -0.25 0.0063(7) 1 0
loop_
_atom_site_aniso_label
_atom_site_aniso_type_symbol
_atom_site_aniso_U_11
_atom_site_aniso_U_22
_atom_site_aniso_U_33
_atom_site_aniso_U_12
_atom_site_aniso_U_13
_atom_site_aniso_U_23
Na1 Na1+ 0.061(4) 0.061(4) 0.007(3) -0.035(4) 0. 0.
F1 F1- 0.009(3) 0.009(3) 0.008(4) 0. 0. 0.
O1 O2- 0.0059(19) 0.024(2) 0.016(2) 0. -0.0019(17) 0.
F2 F1- 0.027(3) 0.027(3) 0.009(3) 0. 0. 0.
Fe1 Fe3+ 0.0084(6) 0.0084(6) 0.0074(9) 0. 0. 0.
P1 P5+ 0.0052(9) 0.0052(9) 0.0083(13) 0. 0. 0.
#End of TTdata_425630-ICSD