
#(C) 2019 by FIZ Karlsruhe - Leibniz Institute for Information Infrastructure.  All rights reserved.
data_425742-ICSD
_database_code_ICSD 425742
_audit_creation_date 2014-08-01
_chemical_name_systematic
'Sodium hexasulfodioxide bis(closo-dodecabromodedecaborate)'
_chemical_formula_structural '(Na (S O2)6) (B12 Br12)2'
_chemical_formula_sum 'B24 Br24 Na1 O12 S6'
_exptl_crystal_density_diffrn 3.08
_cell_measurement_temperature 100.
_publ_section_title

;
On the oxidation of the three-dimensional aromatics [B12 X12]2- (X=F, Cl, Br,
I)
;
loop_
_citation_id
_citation_journal_full
_citation_year
_citation_journal_volume
_citation_page_first
_citation_page_last
_citation_journal_id_ASTM
primary 'Chemistry - A European Journal' 2014 20 4447 4459 CEUJED
loop_
_publ_author_name
'Boere, Rene T.'
'Derendorf, Janis'
'Jenne, Carsten'
'Kacprzak, Sylwia'
'Kessler, Mathias'
'Riebau, Rainer'
'Riedel, Sebastian'
'Roemmele, Tracey L.'
'Ruehle, Monika'
'Scherer, Harald'
'Vent-Schmidt, Thomas'
'Warneke, Jonas'
'Weber, Stefan'
_cell_length_a 12.9376(2)
_cell_length_b 12.9376(2)
_cell_length_c 19.2480(5)
_cell_angle_alpha 90.
_cell_angle_beta 90.
_cell_angle_gamma 120.
_cell_volume 2790.12
_cell_formula_units_Z 2
_symmetry_space_group_name_H-M 'P -3 1 c'
_symmetry_Int_Tables_number 163
_refine_ls_R_factor_all 0.0249
loop_
_symmetry_equiv_pos_site_id
_symmetry_equiv_pos_as_xyz
1 '-x+y, y, -z+1/2'
2 'x, x-y, -z+1/2'
3 '-y, -x, -z+1/2'
4 'x-y, x, -z'
5 'y, -x+y, -z'
6 '-x, -y, -z'
7 'x-y, -y, z+1/2'
8 '-x, -x+y, z+1/2'
9 'y, x, z+1/2'
10 '-x+y, -x, z'
11 '-y, x-y, z'
12 'x, y, z'
loop_
_atom_type_symbol
_atom_type_oxidation_number
Na1+ 1
Br1- -1
B0+ 0.96
Br1- -1
B0+ 0.96
Br1- -1
B0+ 0.96
Br1- -1
B0+ 0.96
O2- -2
S4+ 4
O2- -2
loop_
_atom_site_label
_atom_site_type_symbol
_atom_site_symmetry_multiplicity
_atom_site_Wyckoff_symbol
_atom_site_fract_x
_atom_site_fract_y
_atom_site_fract_z
_atom_site_B_iso_or_equiv
_atom_site_occupancy
_atom_site_attached_hydrogens
Na1 Na1+ 2 d 0.3333 0.6667 0.75 0.0233(5) 1 0
Br1 Br1- 12 i 0.66669(2) 0.501537(19) 0.598588(10) 0.01415(5) 1 0
B1 B0+ 12 i 0.6665(2) 0.4135(2) 0.67927(11) 0.0119(4) 1 0
Br2 Br1- 12 i 0.391118(18) 0.335746(19) 0.714987(10) 0.01409(5) 1 0
B2 B0+ 12 i 0.5358(2) 0.3333(2) 0.73360(11) 0.0114(4) 1 0
Br3 Br1- 12 i 1.002964(19) 0.833090(19) 0.348624(10) 0.01280(5) 1 0
B3 B0+ 12 i 0.9992(2) 0.9179(2) 0.42897(11) 0.0098(4) 1 0
Br4 Br1- 12 i 0.730588(18) 0.718114(18) 0.462532(10) 0.01292(5) 1 0
B4 B0+ 12 i 0.8727(2) 0.8659(2) 0.48147(11) 0.0108(4) 1 0
O1 O2- 12 i 0.49153(16) 0.69086(17) 0.67590(9) 0.0259(4) 1 0
S1 S4+ 12 i 0.51477(5) 0.66296(6) 0.60789(3) 0.02108(12) 1 0
O2 O2- 12 i 0.41660(17) 0.57362(16) 0.56973(9) 0.0289(4) 1 0
loop_
_atom_site_aniso_label
_atom_site_aniso_type_symbol
_atom_site_aniso_U_11
_atom_site_aniso_U_22
_atom_site_aniso_U_33
_atom_site_aniso_U_12
_atom_site_aniso_U_13
_atom_site_aniso_U_23
Na1 Na1+ 0.0278(8) 0.0278(8) 0.0144(10) 0.0139(4) 0. 0.
Br1 Br1- 0.01891(11) 0.01523(11) 0.00938(9) 0.00933(9) 0.00004(8) 0.00300(7)
B1 B0+ 0.0138(11) 0.0127(11) 0.0100(9) 0.0072(9) -0.0008(8) 0.0014(8)
Br2 Br1- 0.01257(10) 0.01912(11) 0.01261(9) 0.00943(9) -0.00090(7) 0.00016(8)
B2 B0+ 0.0131(11) 0.0121(11) 0.0086(9) 0.0061(9) -0.0011(8) 0.0001(9)
Br3 Br1- 0.01675(11) 0.01314(10) 0.00967(8) 0.00834(9) 0.00054(8) -0.00247(7)
B3 B0+ 0.0112(10) 0.0087(10) 0.0091(9) 0.0047(9) -0.0001(8) 0.0003(8)
Br4 Br1- 0.01131(10) 0.01034(10) 0.01225(9) 0.00178(8) -0.00130(7) -0.00064(7)
B4 B0+ 0.0108(10) 0.0096(10) 0.0111(10) 0.0043(9) -0.0018(8) -0.0010(8)
O1 O2- 0.0282(10) 0.0349(11) 0.0210(8) 0.0205(9) -0.0046(7) -0.0052(7)
S1 S4+ 0.0168(3) 0.0244(3) 0.0222(3) 0.0105(3) 0.0014(2) -0.0029(2)
O2 O2- 0.0284(10) 0.0275(10) 0.0273(10) 0.0113(8) -0.0043(8) -0.0054(8)
#End of TTdata_425742-ICSD