
#(C) 2019 by FIZ Karlsruhe - Leibniz Institute for Information Infrastructure.  All rights reserved.
data_425964-ICSD
_database_code_ICSD 425964
_audit_creation_date 2014-02-01
_chemical_name_systematic 'Trisodium pentaoxotetrafluorodiborophosphate'
_chemical_formula_structural 'Na3 (B2 P O5 F4)'
_chemical_formula_sum 'B2 F4 Na3 O5 P1'
_exptl_crystal_density_diffrn 2.69
_cell_measurement_temperature 298.
_publ_section_title

;
Novel Fluorido-Oxoanions via Lewis Acid-Base Reactions - Synthesis and Crystal
Structure Determination of Na3 B2 P O5 F4
;
loop_
_citation_id
_citation_journal_full
_citation_year
_citation_journal_volume
_citation_page_first
_citation_page_last
_citation_journal_id_ASTM
primary 'Zeitschrift fuer Kristallographie - Crystalline Materials' 2013 228 476
482 ZKCMAJ
loop_
_publ_author_name
'Jansen, Martin'
'Pilz, Thomas'
_cell_length_a 6.5230(6)
_cell_length_b 12.1737(11)
_cell_length_c 8.8279(8)
_cell_angle_alpha 90.
_cell_angle_beta 102.322(5)
_cell_angle_gamma 90.
_cell_volume 684.87
_cell_formula_units_Z 4
_symmetry_space_group_name_H-M 'P 1 21/n 1'
_symmetry_Int_Tables_number 14
_refine_ls_R_factor_all 0.0316
loop_
_symmetry_equiv_pos_site_id
_symmetry_equiv_pos_as_xyz
1 '-x+1/2, y+1/2, -z+1/2'
2 '-x, -y, -z'
3 'x+1/2, -y+1/2, z+1/2'
4 'x, y, z'
loop_
_atom_type_symbol
_atom_type_oxidation_number
P5+ 5
Na1+ 1
F1- -1
O2- -2
B3+ 3
loop_
_atom_site_label
_atom_site_type_symbol
_atom_site_symmetry_multiplicity
_atom_site_Wyckoff_symbol
_atom_site_fract_x
_atom_site_fract_y
_atom_site_fract_z
_atom_site_B_iso_or_equiv
_atom_site_occupancy
_atom_site_attached_hydrogens
P1 P5+ 4 e 0.08528(6) 0.83869(3) 0.81012(5) 0.01589(11) 1 0
Na1 Na1+ 4 e 0.38666(11) 1.23039(6) 1.08888(8) 0.02275(16) 1 0
Na2 Na1+ 4 e 0.33229(13) 0.92067(7) 1.16344(9) 0.03149(19) 1 0
Na3 Na1+ 4 e 0.21041(13) 0.64304(6) 1.04106(9) 0.02897(18) 1 0
F1 F1- 4 e 0.30710(17) 1.07081(9) 0.94234(12) 0.0277(2) 1 0
F2 F1- 4 e 0.01676(17) 1.14746(8) 0.78929(13) 0.0258(2) 1 0
F3 F1- 4 e 0.50950(15) 0.90862(9) 0.71180(12) 0.0237(2) 1 0
F4 F1- 4 e 0.30941(17) 0.93562(9) 0.47008(12) 0.0264(2) 1 0
O1 O2- 4 e 0.15869(18) 0.84489(9) 0.65000(13) 0.0176(2) 1 0
O2 O2- 4 e 0.01470(18) 0.96041(9) 0.83138(14) 0.0192(2) 1 0
O3 O2- 4 e 0.2404(2) 1.03956(10) 0.67452(14) 0.0226(3) 1 0
O4 O2- 4 e 0.26587(18) 0.80861(10) 0.93870(13) 0.0202(2) 1 0
O5 O2- 4 e -0.10131(18) 0.76516(10) 0.78754(14) 0.0214(2) 1 0
B1 B3+ 4 e 0.2982(3) 0.93470(14) 0.62836(19) 0.0162(3) 1 0
B2 B3+ 4 e 0.1469(3) 1.05376(14) 0.8057(2) 0.0168(3) 1 0
loop_
_atom_site_aniso_label
_atom_site_aniso_type_symbol
_atom_site_aniso_U_11
_atom_site_aniso_U_22
_atom_site_aniso_U_33
_atom_site_aniso_U_12
_atom_site_aniso_U_13
_atom_site_aniso_U_23
P1 P5+ 0.01502(19) 0.01655(19) 0.01629(19) -0.00137(13) 0.00375(14) 0.00032(13)
Na1 Na1+ 0.0213(3) 0.0250(3) 0.0230(3) -0.0007(3) 0.0071(3) -0.0001(3)
Na2 Na1+ 0.0333(4) 0.0286(4) 0.0317(4) -0.0038(3) 0.0052(3) -0.0067(3)
Na3 Na1+ 0.0405(4) 0.0258(4) 0.0231(4) -0.0092(3) 0.0122(3) -0.0024(3)
F1 F1- 0.0253(5) 0.0281(5) 0.0261(5) -0.0024(4) -0.0028(4) -0.0052(4)
F2 F1- 0.0263(5) 0.0184(5) 0.0329(6) 0.0065(4) 0.0068(4) 0.0016(4)
F3 F1- 0.0164(4) 0.0285(5) 0.0258(5) 0.0005(4) 0.0036(4) 0.0040(4)
F4 F1- 0.0327(6) 0.0319(5) 0.0165(5) -0.0053(4) 0.0096(4) -0.0012(4)
O1 O2- 0.0205(5) 0.0172(5) 0.0160(5) -0.0035(4) 0.0060(4) -0.0023(4)
O2 O2- 0.0184(5) 0.0182(5) 0.0227(6) 0.0005(4) 0.0084(4) -0.0008(4)
O3 O2- 0.0285(6) 0.0161(5) 0.0266(6) -0.0018(4) 0.0136(5) -0.0004(4)
O4 O2- 0.0190(5) 0.0230(6) 0.0173(5) 0.0012(4) 0.0009(4) 0.0027(4)
O5 O2- 0.0189(5) 0.0205(5) 0.0263(6) -0.0054(4) 0.0080(5) -0.0015(4)
B1 B3+ 0.0168(7) 0.0180(7) 0.0142(7) -0.0012(6) 0.0046(6) 0.0000(6)
B2 B3+ 0.0166(7) 0.0145(7) 0.0190(8) 0.0010(6) 0.0031(6) 0.0006(6)
#End of TTdata_425964-ICSD