
#(C) 2019 by FIZ Karlsruhe - Leibniz Institute for Information Infrastructure.  All rights reserved.
data_425965-ICSD
_database_code_ICSD 425965
_audit_creation_date 2014-02-01
_chemical_name_systematic 'Trisodium pentaoxotetrafluorodiborophosphate'
_chemical_formula_structural 'Na3 (B2 P O5 F4)'
_chemical_formula_sum 'B2 F4 Na3 O5 P1'
_chemical_name_structure_type YBO3(oS60)
_exptl_crystal_density_diffrn 2.48
_cell_measurement_temperature 100.
_publ_section_title

;
Novel Fluorido-Oxoanions via Lewis Acid-Base Reactions - Synthesis and Crystal
Structure Determination of Na3 B2 P O5 F4
;
loop_
_citation_id
_citation_journal_full
_citation_year
_citation_journal_volume
_citation_page_first
_citation_page_last
_citation_journal_id_ASTM
primary 'Zeitschrift fuer Kristallographie - Crystalline Materials' 2013 228 476
482 ZKCMAJ
loop_
_publ_author_name
'Jansen, Martin'
'Pilz, Thomas'
_cell_length_a 12.1749(15)
_cell_length_b 6.7187(8)
_cell_length_c 9.0773(11)
_cell_angle_alpha 90.
_cell_angle_beta 90.
_cell_angle_gamma 90.
_cell_volume 742.52
_cell_formula_units_Z 4
_symmetry_space_group_name_H-M 'C m c m'
_symmetry_Int_Tables_number 63
_refine_ls_R_factor_all 0.0338
loop_
_symmetry_equiv_pos_site_id
_symmetry_equiv_pos_as_xyz
1 '-x, y, -z+1/2'
2 '-x, -y, z+1/2'
3 '-x, y, z'
4 '-x, -y, -z'
5 'x, -y, z+1/2'
6 'x, y, -z+1/2'
7 'x, -y, -z'
8 'x, y, z'
9 '-x+1/2, y+1/2, -z+1/2'
10 '-x+1/2, -y+1/2, z+1/2'
11 '-x+1/2, y+1/2, z'
12 '-x+1/2, -y+1/2, -z'
13 'x+1/2, -y+1/2, z+1/2'
14 'x+1/2, y+1/2, -z+1/2'
15 'x+1/2, -y+1/2, -z'
16 'x+1/2, y+1/2, z'
loop_
_atom_type_symbol
_atom_type_oxidation_number
Na1+ 1
P5+ 5
B3+ 3
O2- -2
F1- -1
O2- -2
loop_
_atom_site_label
_atom_site_type_symbol
_atom_site_symmetry_multiplicity
_atom_site_Wyckoff_symbol
_atom_site_fract_x
_atom_site_fract_y
_atom_site_fract_z
_atom_site_B_iso_or_equiv
_atom_site_occupancy
_atom_site_attached_hydrogens
Na1 Na1+ 4 b 0.5 0. 0.5 0.0223(3) 1 0
Na2 Na1+ 8 e 0.30658(8) 0.5 0.5 0.0251(3) 1 0
P1 P5+ 8 g 0.38850(7) 0.23249(13) 0.75 0.0145(2) 0.5 0
B1 B3+ 8 g 0.38850(7) 0.23249(13) 0.75 0.0145(2) 0.5 0
B2 B3+ 4 c 0.5 0.5752(5) 0.75 0.0190(7) 1 0
O1 O2- 16 h 0.33097(10) 0.17474(19) 0.61644(13) 0.0290(3) 0.5 0
F1 F1- 16 h 0.33097(10) 0.17474(19) 0.61644(13) 0.0290(3) 0.5 0
F2 F1- 8 f 0.5 0.6969(3) 0.6249(2) 0.0523(6) 1 0
O2 O2- 4 c 0.5 0.1380(4) 0.75 0.0256(5) 1 0
O3 O2- 8 g 0.40148(17) 0.4567(3) 0.75 0.0355(5) 1 0
loop_
_atom_site_aniso_label
_atom_site_aniso_type_symbol
_atom_site_aniso_U_11
_atom_site_aniso_U_22
_atom_site_aniso_U_33
_atom_site_aniso_U_12
_atom_site_aniso_U_13
_atom_site_aniso_U_23
Na1 Na1+ 0.0337(7) 0.0170(6) 0.0160(6) 0. 0. 0.0007(5)
Na2 Na1+ 0.0210(5) 0.0291(5) 0.0253(5) 0. 0. 0.0108(4)
P1 P5+ 0.0136(4) 0.0135(4) 0.0164(4) -0.0010(3) 0. 0.
B1 B3+ 0.0136(4) 0.0135(4) 0.0164(4) -0.0010(3) 0. 0.
B2 B3+ 0.039(2) 0.0087(13) 0.0087(13) 0. 0. 0.
O1 O2- 0.0301(6) 0.0348(6) 0.0221(6) -0.0020(5) -0.0090(5) 0.0022(5)
F1 F1- 0.0301(6) 0.0348(6) 0.0221(6) -0.0020(5) -0.0090(5) 0.0022(5)
F2 F1- 0.1052(18) 0.0273(9) 0.0245(9) 0. 0. 0.0142(8)
O2 O2- 0.0293(13) 0.0128(10) 0.0347(14) 0. 0. 0.
O3 O2- 0.0260(9) 0.0168(8) 0.0636(15) 0.0066(7) 0. 0.
#End of TTdata_425965-ICSD