
#(C) 2019 by FIZ Karlsruhe - Leibniz Institute for Information Infrastructure.  All rights reserved.
data_425915-ICSD
_database_code_ICSD 425915
_audit_creation_date 2015-02-01
_chemical_name_systematic 'Disodium hexafluorotechnetate(IV)'
_chemical_formula_structural 'Na2 (Tc F6)'
_chemical_formula_sum 'F6 Na2 Tc1'
_chemical_name_structure_type (NH4)2SiF6
_exptl_crystal_density_diffrn 2.94
_cell_measurement_temperature 200.
_publ_section_title 'Hexafluoridotechnetate(IV) revisited'
loop_
_citation_id
_citation_journal_full
_citation_year
_citation_journal_volume
_citation_page_first
_citation_page_last
_citation_journal_id_ASTM
primary 'Inorganic Chemistry' 2013 52 7094 7099 INOCAJ
loop_
_publ_author_name
'Balasekaran, Samundeeswari Mariappan'
'Molski, Matthias'
'Spandl, Johann'
'Hagenbach, Adelheid'
'Alberto, Roger'
'Abram, Ulrich'
_cell_length_a 5.9580(10)
_cell_length_b 5.9580(10)
_cell_length_c 4.7570(10)
_cell_angle_alpha 90.
_cell_angle_beta 90.
_cell_angle_gamma 120.
_cell_volume 146.23
_cell_formula_units_Z 1
_symmetry_space_group_name_H-M 'P -3 m 1'
_symmetry_Int_Tables_number 164
_refine_ls_R_factor_all 0.0819
loop_
_symmetry_equiv_pos_site_id
_symmetry_equiv_pos_as_xyz
1 'x-y, -y, -z'
2 '-x, -x+y, -z'
3 'y, x, -z'
4 'x-y, x, -z'
5 'y, -x+y, -z'
6 '-x, -y, -z'
7 '-x+y, y, z'
8 'x, x-y, z'
9 '-y, -x, z'
10 '-x+y, -x, z'
11 '-y, x-y, z'
12 'x, y, z'
loop_
_atom_type_symbol
_atom_type_oxidation_number
Tc4+ 4
F1- -1
Na1+ 1
loop_
_atom_site_label
_atom_site_type_symbol
_atom_site_symmetry_multiplicity
_atom_site_Wyckoff_symbol
_atom_site_fract_x
_atom_site_fract_y
_atom_site_fract_z
_atom_site_B_iso_or_equiv
_atom_site_occupancy
_atom_site_attached_hydrogens
Tc1 Tc4+ 1 a 0. 0. 0. 0.0399(8) 1 0
F1 F1- 6 i 0.3061(13) 0.1530(7) 0.2203(12) 0.0486(13) 1 0
Na1 Na1+ 2 d 0.3333 0.6667 0.305(3) 0.080(3) 1 0
loop_
_atom_site_aniso_label
_atom_site_aniso_type_symbol
_atom_site_aniso_U_11
_atom_site_aniso_U_22
_atom_site_aniso_U_33
_atom_site_aniso_U_12
_atom_site_aniso_U_13
_atom_site_aniso_U_23
Tc1 Tc4+ 0.0398(9) 0.0398(9) 0.0401(11) 0.0199(4) 0. 0.
F1 F1- 0.047(3) 0.051(2) 0.046(3) 0.0234(16) -0.005(2) -0.0027(11)
Na1 Na1+ 0.080(5) 0.080(5) 0.079(7) 0.040(3) 0. 0.
#End of TTdata_425915-ICSD