
#(C) 2019 by FIZ Karlsruhe - Leibniz Institute for Information Infrastructure.  All rights reserved.
data_425910-ICSD
_database_code_ICSD 425910
_audit_creation_date 2013-08-01
_chemical_name_systematic 'Sodium boron oxide chloride (11/21/36/2)'
_chemical_formula_structural 'Na11 B21 O36 Cl2'
_chemical_formula_sum 'B21 Cl2 Na11 O36'
_exptl_crystal_density_diffrn 2.3
_cell_measurement_temperature 296.
_publ_section_title

;
Na11 B21 O36 X2 (X = Cl, Br): halogen sodium borates with a new graphene-like
borate double layer
;
loop_
_citation_id
_citation_journal_full
_citation_year
_citation_journal_volume
_citation_page_first
_citation_page_last
_citation_journal_id_ASTM
primary 'Chemistry - A European Journal' 2013 19 7338 7341 CEUJED
loop_
_publ_author_name
'Dong, Xiaoyu'
'Wu, Hongping'
'Shi, Yunjing'
'Yu, Hongwei'
'Yang, Zhihua'
'Zhang, Bingbing'
'Chen, Zhaohui'
'Yang, Yun'
'Huang, Zhenjun'
'Pan, Shilie'
'Zhou, Zhongxiang'
_cell_length_a 15.6194(19)
_cell_length_b 8.8794(11)
_cell_length_c 23.811(3)
_cell_angle_alpha 90.
_cell_angle_beta 99.248(8)
_cell_angle_gamma 90.
_cell_volume 3259.44
_cell_formula_units_Z 4
_symmetry_space_group_name_H-M 'C 1 2/c 1'
_symmetry_Int_Tables_number 15
_refine_ls_R_factor_all 0.0517
loop_
_symmetry_equiv_pos_site_id
_symmetry_equiv_pos_as_xyz
1 'x, -y, z+1/2'
2 '-x, -y, -z'
3 '-x, y, -z+1/2'
4 'x, y, z'
5 'x+1/2, -y+1/2, z+1/2'
6 '-x+1/2, -y+1/2, -z'
7 '-x+1/2, y+1/2, -z+1/2'
8 'x+1/2, y+1/2, z'
loop_
_atom_type_symbol
_atom_type_oxidation_number
Na1+ 1
B3+ 3
O2- -2
Cl1- -1
loop_
_atom_site_label
_atom_site_type_symbol
_atom_site_symmetry_multiplicity
_atom_site_Wyckoff_symbol
_atom_site_fract_x
_atom_site_fract_y
_atom_site_fract_z
_atom_site_B_iso_or_equiv
_atom_site_occupancy
_atom_site_attached_hydrogens
Na1 Na1+ 8 f 0.13887(11) 0.8467(2) 0.34497(8) 0.0307(5) 1 0
Na2 Na1+ 8 f -0.01192(9) 0.47041(17) 0.15382(6) 0.0161(4) 1 0
Na3 Na1+ 8 f -0.12264(11) 0.84373(19) 0.34024(7) 0.0278(4) 1 0
Na4 Na1+ 8 f -0.09559(13) 0.8473(3) 0.48067(9) 0.0559(7) 1 0
Na5 Na1+ 8 f 0.3395(3) 0.8073(7) 0.5106(2) 0.0717(18) 0.49 0
Na6 Na1+ 8 f 0.3313(2) 0.6522(5) 0.52756(14) 0.0297(9) 0.51 0
Na7 Na1+ 8 f 0.4360(3) 1.0066(5) 0.49444(17) 0.0473(11) 0.5 0
B1 B3+ 8 f 0.3097(3) 0.9721(6) 0.2896(2) 0.0214(11) 1 0
B2 B3+ 8 f 0.3189(3) 0.8656(5) 0.3918(2) 0.0169(10) 1 0
B3 B3+ 8 f 0.2496(3) 1.1093(5) 0.4201(2) 0.0186(11) 1 0
B4 B3+ 8 f 0.2084(3) 1.3695(5) 0.43816(19) 0.0159(10) 1 0
B5 B3+ 8 f 0.0929(3) 1.1856(5) 0.4019(2) 0.0162(10) 1 0
B6 B3+ 8 f 0.2848(3) 0.5979(5) 0.41382(19) 0.0152(10) 1 0
B7 B3+ 8 f -0.0811(3) 0.6364(6) 0.2494(2) 0.0182(10) 1 0
B8 B3+ 4 e 0. 0.8868(8) 0.25 0.0170(14) 1 0
B9 B3+ 8 f -0.0627(3) 1.1759(5) 0.4207(2) 0.0178(10) 1 0
B10 B3+ 8 f 0.2157(3) 0.5349(6) 0.3101(2) 0.0200(11) 1 0
B11 B3+ 8 f 0.0302(3) 1.1384(6) 0.2990(2) 0.0201(11) 1 0
O1 O2- 4 e 0. 1.2166(5) 0.25 0.0346(12) 1 0
O2 O2- 8 f 0.02083(16) 1.1268(3) 0.42849(11) 0.0192(7) 1 0
O3 O2- 8 f -0.07521(17) 0.7981(3) 0.25590(12) 0.0199(7) 1 0
O4 O2- 8 f -0.13774(17) 0.6035(3) 0.19344(11) 0.0198(7) 1 0
O5 O2- 8 f 0.12435(17) 0.5734(3) 0.20227(11) 0.0206(7) 1 0
O6 O2- 8 f 0.02058(18) 0.9875(3) 0.30206(11) 0.0205(7) 1 0
O7 O2- 8 f 0.26120(19) 0.9575(4) 0.23644(12) 0.0330(8) 1 0
O8 O2- 8 f 0.31653(16) 1.0122(3) 0.42183(11) 0.0182(6) 1 0
O9 O2- 8 f 0.26414(16) 0.7558(3) 0.41664(11) 0.0152(6) 1 0
O10 O2- 8 f 0.28518(18) 0.8838(3) 0.33139(12) 0.0228(7) 1 0
O11 O2- 8 f 0.06889(18) 1.2258(3) 0.34316(12) 0.0205(7) 1 0
O12 O2- 8 f 0.27110(17) 1.2614(3) 0.43222(13) 0.0250(7) 1 0
O13 O2- 8 f 0.12358(17) 1.3268(3) 0.43314(11) 0.0184(7) 1 0
O14 O2- 8 f 0.16358(16) 1.0697(3) 0.40968(11) 0.0179(6) 1 0
O15 O2- 8 f 0.37804(16) 0.5760(3) 0.43751(11) 0.0204(7) 1 0
O16 O2- 8 f 0.23221(17) 0.5138(3) 0.45106(12) 0.0204(7) 1 0
O17 O2- 8 f 0.27499(18) 0.5281(3) 0.35732(11) 0.0229(7) 1 0
O18 O2- 4 e 0. 0.5624(4) 0.25 0.0209(9) 1 0
O19 O2- 8 f -0.08832(16) 1.3159(3) 0.40046(12) 0.0205(7) 1 0
Cl1 Cl1- 8 f 0.01792(8) 0.71147(14) 0.42548(5) 0.0360(3) 1 0
loop_
_atom_site_aniso_label
_atom_site_aniso_type_symbol
_atom_site_aniso_U_11
_atom_site_aniso_U_22
_atom_site_aniso_U_33
_atom_site_aniso_U_12
_atom_site_aniso_U_13
_atom_site_aniso_U_23
Na1 Na1+ 0.0191(9) 0.0233(11) 0.0449(11) 0.0023(8) -0.0094(8) -0.0056(9)
Na2 Na1+ 0.0148(8) 0.0129(9) 0.0208(8) -0.0045(6) 0.0036(6) -0.0072(7)
Na3 Na1+ 0.0282(8) 0.0262(8) 0.0338(8) 0.0098(6) 0.0199(6) -0.0044(7)
Na4 Na1+ 0.0340(12) 0.0841(19) 0.0453(13) -0.0094(12) -0.0067(10) 0.0253(12)
Na5 Na1+ 0.047(3) 0.119(5) 0.045(3) 0.032(3) -0.004(2) -0.033(3)
Na6 Na1+ 0.0238(19) 0.043(2) 0.0239(19) -0.0049(17) 0.0103(15) -0.0059(18)
Na7 Na1+ 0.053(3) 0.044(3) 0.042(2) 0.002(2) -0.002(2) 0.009(2)
B1 B3+ 0.017(3) 0.029(3) 0.019(3) 0.000(2) 0.0039(19) 0.002(2)
B2 B3+ 0.015(2) 0.016(3) 0.020(2) -0.0018(19) 0.0037(18) -0.002(2)
B3 B3+ 0.020(3) 0.015(3) 0.020(3) 0.0009(19) 0.0017(19) 0.002(2)
B4 B3+ 0.015(2) 0.019(3) 0.013(2) 0.0000(19) -0.0010(18) 0.0030(19)
B5 B3+ 0.014(2) 0.017(3) 0.018(2) 0.0000(19) 0.0035(18) -0.003(2)
B6 B3+ 0.012(2) 0.017(3) 0.016(2) 0.0001(18) 0.0021(18) 0.001(2)
B7 B3+ 0.015(2) 0.021(3) 0.019(2) -0.0006(19) 0.0017(18) 0.001(2)
B8 B3+ 0.021(4) 0.018(4) 0.013(3) 0. 0.004(3) 0.
B9 B3+ 0.015(2) 0.020(3) 0.019(2) -0.004(2) 0.0044(19) -0.002(2)
B10 B3+ 0.018(3) 0.020(3) 0.021(3) 0.002(2) 0.0003(19) -0.002(2)
B11 B3+ 0.022(3) 0.021(3) 0.017(2) 0.000(2) 0.0002(19) -0.001(2)
O1 O2- 0.055(3) 0.017(2) 0.025(2) 0. -0.015(2) 0.
O2 O2- 0.0115(14) 0.0222(17) 0.0236(16) 0.0004(12) 0.0013(11) 0.0012(13)
O3 O2- 0.0145(15) 0.0146(16) 0.0309(17) 0.0003(11) 0.0048(12) -0.0018(13)
O4 O2- 0.0171(15) 0.0226(17) 0.0194(15) -0.0050(12) 0.0020(12) 0.0011(13)
O5 O2- 0.0177(15) 0.0231(17) 0.0212(15) 0.0037(12) 0.0034(12) -0.0032(13)
O6 O2- 0.0250(16) 0.0153(16) 0.0194(15) -0.0022(12) -0.0014(12) 0.0018(13)
O7 O2- 0.0270(18) 0.046(2) 0.0229(17) -0.0175(15) -0.0051(13) 0.0108(15)
O8 O2- 0.0124(14) 0.0146(16) 0.0271(16) 0.0005(11) 0.0021(12) -0.0024(13)
O9 O2- 0.0105(14) 0.0145(15) 0.0204(15) 0.0007(11) 0.0020(11) 0.0018(12)
O10 O2- 0.0229(16) 0.0257(18) 0.0197(16) -0.0045(13) 0.0032(12) 0.0053(13)
O11 O2- 0.0198(15) 0.0189(16) 0.0219(16) 0.0006(12) 0.0011(12) -0.0008(13)
O12 O2- 0.0143(15) 0.0170(17) 0.0430(19) -0.0007(12) 0.0024(13) -0.0024(14)
O13 O2- 0.0138(15) 0.0166(16) 0.0247(16) -0.0005(12) 0.0028(11) -0.0056(13)
O14 O2- 0.0094(14) 0.0152(16) 0.0283(16) 0.0007(11) 0.0004(11) -0.0022(13)
O15 O2- 0.0107(14) 0.0213(17) 0.0277(16) -0.0013(12) -0.0010(12) 0.0058(13)
O16 O2- 0.0172(15) 0.0150(16) 0.0295(17) -0.0038(12) 0.0055(12) -0.0007(13)
O17 O2- 0.0237(16) 0.0263(18) 0.0175(15) 0.0089(13) 0.0000(12) -0.0041(13)
O18 O2- 0.016(2) 0.014(2) 0.032(2) 0. 0.0030(17) 0.
O19 O2- 0.0104(14) 0.0169(17) 0.0354(18) 0.0002(11) 0.0071(12) 0.0026(13)
Cl1 Cl1- 0.0390(7) 0.0302(7) 0.0364(7) -0.0004(6) -0.0010(5) -0.0010(6)
#End of TTdata_425910-ICSD