
#(C) 2019 by FIZ Karlsruhe - Leibniz Institute for Information Infrastructure.  All rights reserved.
data_4260-ICSD
_database_code_ICSD 4260
_audit_creation_date 1980-01-01
_audit_update_record 2006-04-01
_chemical_name_systematic 'Barium sodium phosphate(V) - HT'
_chemical_formula_structural 'Ba Na (P O4)'
_chemical_formula_sum 'Ba1 Na1 O4 P1'
_chemical_name_structure_type K3Na(SO4)2
_exptl_crystal_density_diffrn 4.27
_publ_section_title 'Crystal structure of the glaserite form of Na Ba P O4'
loop_
_citation_id
_citation_journal_full
_citation_year
_citation_journal_volume
_citation_page_first
_citation_page_last
_citation_journal_id_ASTM
primary 'Canadian Journal of Chemistry' 1975 53 1849 1853 CJCHAG
loop_
_publ_author_name
'Calvo, C.'
'Faggiani, R.'
_cell_length_a 5.622(4)
_cell_length_b 5.622(4)
_cell_length_c 7.259(5)
_cell_angle_alpha 90.
_cell_angle_beta 90.
_cell_angle_gamma 120.
_cell_volume 198.7
_cell_formula_units_Z 2
_symmetry_space_group_name_H-M 'P -3 m 1'
_symmetry_Int_Tables_number 164
_refine_ls_R_factor_all 0.042
loop_
_symmetry_equiv_pos_site_id
_symmetry_equiv_pos_as_xyz
1 'x-y, -y, -z'
2 '-x, -x+y, -z'
3 'y, x, -z'
4 'x-y, x, -z'
5 'y, -x+y, -z'
6 '-x, -y, -z'
7 '-x+y, y, z'
8 'x, x-y, z'
9 '-y, -x, z'
10 '-x+y, -x, z'
11 '-y, x-y, z'
12 'x, y, z'
loop_
_atom_type_symbol
_atom_type_oxidation_number
Na1+ 1
Ba2+ 2
Na1+ 1
Ba2+ 2
P5+ 5
O2- -2
loop_
_atom_site_label
_atom_site_type_symbol
_atom_site_symmetry_multiplicity
_atom_site_Wyckoff_symbol
_atom_site_fract_x
_atom_site_fract_y
_atom_site_fract_z
_atom_site_B_iso_or_equiv
_atom_site_occupancy
_atom_site_attached_hydrogens
Na1 Na1+ 1 a 0 0 0 . 1. 0
Ba1 Ba2+ 1 b 0 0 0.5 . 1. 0
Na2 Na1+ 2 d 0.3333 0.6666 0.8419(3) . 0.5 0
Ba2 Ba2+ 2 d 0.3333 0.6666 0.8419(3) . 0.5 0
P1 P5+ 2 d 0.3333 0.6666 0.2816(6) . 1. 0
O1 O2- 2 d 0.3333 0.6666 0.5091(17) . 1. 0
O2 O2- 6 i 0.1849(16) -.1849(16) 0.2068(9) . 1. 0
loop_
_atom_site_aniso_label
_atom_site_aniso_type_symbol
_atom_site_aniso_U_11
_atom_site_aniso_U_22
_atom_site_aniso_U_33
_atom_site_aniso_U_12
_atom_site_aniso_U_13
_atom_site_aniso_U_23
Na1 Na1+ 0.017(5) 0.017(5) 0.017(5) 0.0085 0 0
Ba1 Ba2+ 0.026(1) 0.026(1) 0.0067(7) 0.013 0 0
Na2 Na1+ 0.0145(1) 0.0145(1) 0.011(1) 0.0072 0 0
Ba2 Ba2+ 0.0145(1) 0.0145(1) 0.011(1) 0.0072 0 0
P1 P5+ 0.009(2) 0.009(2) 0.006(2) 0.0045 0 0
O1 O2- 0.016(6) 0.016(6) 0.010(5) 0.008 0 0
O2 O2- 0.020(4) 0.020(4) 0.014(3) 0.01 0 0
#End of TTdata_4260-ICSD