
#(C) 2019 by FIZ Karlsruhe - Leibniz Institute for Information Infrastructure.  All rights reserved.
data_426510-ICSD
_database_code_ICSD 426510
_audit_creation_date 2014-08-01
_chemical_name_systematic
'Dinatrium triyttrium trichlor tetrakis(technetate(IV))'
_chemical_formula_structural 'Na2 Y3 Cl3 (Te O3)4'
_chemical_formula_sum 'Cl3 Na2 O12 Te4 Y3'
_chemical_name_structure_type Na2Y3Cl3(TeO3)4
_exptl_crystal_density_diffrn 4.74
_cell_measurement_temperature 293.
_publ_section_title

;
Na2 Y3 Cl3 [Te O3]4. Synthesis, crystal structure and spectroscopic properties
of the bulk material and its luminescent Eu(3+)-doped samples
;
loop_
_citation_id
_citation_journal_full
_citation_year
_citation_journal_volume
_citation_page_first
_citation_page_last
_citation_journal_id_ASTM
primary 'Zeitschrift fuer Naturforschung, B: A Journal of Chemical Sciences'
2014 69 150 158 ZNBSEN
loop_
_publ_author_name
'Zitzer, Sabine'
'Schleifenbaum, Frank'
'Schleid, Thomas'
_cell_length_a 23.8069(14)
_cell_length_b 5.5276(3)
_cell_length_c 16.6248(9)
_cell_angle_alpha 90.
_cell_angle_beta 134.045(3)
_cell_angle_gamma 90.
_cell_volume 1572.53
_cell_formula_units_Z 4
_symmetry_space_group_name_H-M 'C 1 2/c 1'
_symmetry_Int_Tables_number 15
_refine_ls_R_factor_all 0.0408
loop_
_symmetry_equiv_pos_site_id
_symmetry_equiv_pos_as_xyz
1 'x, -y, z+1/2'
2 '-x, -y, -z'
3 '-x, y, -z+1/2'
4 'x, y, z'
5 'x+1/2, -y+1/2, z+1/2'
6 '-x+1/2, -y+1/2, -z'
7 '-x+1/2, y+1/2, -z+1/2'
8 'x+1/2, y+1/2, z'
loop_
_atom_type_symbol
_atom_type_oxidation_number
Na1+ 1
Y3+ 3
Cl1- -1
Te4+ 4
O2- -2
loop_
_atom_site_label
_atom_site_type_symbol
_atom_site_symmetry_multiplicity
_atom_site_Wyckoff_symbol
_atom_site_fract_x
_atom_site_fract_y
_atom_site_fract_z
_atom_site_B_iso_or_equiv
_atom_site_occupancy
_atom_site_attached_hydrogens
Na1 Na1+ 8 f 0.1660(3) 0.2741(7) 0.5749(4) 0.0364(11) 1 0
Y1 Y3+ 4 e 0. 0.24830(16) 0.25 0.0097(2) 1 0
Y2 Y3+ 8 f 0.00077(5) 0.25128(12) 0.58531(6) 0.00980(19) 1 0
Cl1 Cl1- 4 d 0.25 0.25 0.5 0.0296(8) 1 0
Cl2 Cl1- 8 f 0.25029(15) 0.2537(4) 0.16897(19) 0.0257(5) 1 0
Te1 Te4+ 8 f 0.13595(3) 0.80045(9) 0.40416(4) 0.01327(17) 1 0
Te2 Te4+ 8 f 0.13302(3) 0.29522(9) 0.19722(4) 0.01394(17) 1 0
O1 O2- 8 f 0.0735(4) 0.5518(9) 0.3847(5) 0.0138(12) 1 0
O2 O2- 8 f 0.0717(4) 0.0749(9) 0.7574(5) 0.0149(12) 1 0
O3 O2- 8 f 0.0867(4) 0.0156(9) 0.4265(5) 0.0152(12) 1 0
O4 O2- 8 f 0.0700(4) 0.0524(9) 0.0914(5) 0.0187(14) 1 0
O5 O2- 8 f 0.0672(4) 0.4193(9) 0.2120(5) 0.0168(13) 1 0
O6 O2- 8 f 0.0851(4) 0.4842(9) 0.5774(5) 0.0162(13) 1 0
loop_
_atom_site_aniso_label
_atom_site_aniso_type_symbol
_atom_site_aniso_U_11
_atom_site_aniso_U_22
_atom_site_aniso_U_33
_atom_site_aniso_U_12
_atom_site_aniso_U_13
_atom_site_aniso_U_23
Na1 Na1+ 0.029(2) 0.039(3) 0.032(2) 0.0016(19) 0.018(2) -0.0173(18)
Y1 Y3+ 0.0170(6) 0.0055(5) 0.0115(5) 0. 0.0117(5) 0.
Y2 Y3+ 0.0181(4) 0.0057(4) 0.0109(3) 0.0004(3) 0.0121(3) 0.0004(3)
Cl1 Cl1- 0.038(2) 0.0218(18) 0.0386(19) -0.0031(14) 0.0306(18) -0.0025(14)
Cl2 Cl1- 0.0327(13) 0.0225(12) 0.0273(11) 0.0016(10) 0.0228(11) 0.0010(9)
Te1 Te4+ 0.0185(3) 0.0105(3) 0.0143(3) 0.0007(2) 0.0127(2) 0.00088(19)
Te2 Te4+ 0.0193(3) 0.0114(3) 0.0143(3) 0.0007(2) 0.0129(2) 0.00017(19)
O1 O2- 0.020(3) 0.010(3) 0.020(3) -0.001(2) 0.017(3) -0.002(2)
O2 O2- 0.022(3) 0.013(3) 0.014(3) -0.003(2) 0.014(3) -0.003(2)
O3 O2- 0.024(3) 0.009(3) 0.018(3) -0.003(2) 0.016(3) -0.003(2)
O4 O2- 0.031(4) 0.013(3) 0.017(3) -0.007(3) 0.019(3) -0.003(2)
O5 O2- 0.029(3) 0.014(3) 0.022(3) 0.002(3) 0.023(3) 0.003(2)
O6 O2- 0.024(3) 0.013(3) 0.015(3) -0.006(3) 0.014(3) -0.007(2)
#End of TTdata_426510-ICSD