
#(C) 2019 by FIZ Karlsruhe - Leibniz Institute for Information Infrastructure.  All rights reserved.
data_426631-ICSD
_database_code_ICSD 426631
_audit_creation_date 2015-08-01
_chemical_name_systematic 'Barium sodium cyclo-triphosphate trihydate'
_chemical_formula_structural 'Ba Na (P O3)3 (H2 O)3'
_chemical_formula_sum 'H6 Ba1 Na1 O12 P3'
_exptl_crystal_density_diffrn 2.77
_cell_measurement_temperature 293.
_publ_section_title

;
Spectroscopic and structural investigation of Ba Na P3 O9 * 3(H2 O)
cyclotriphosphate
;
loop_
_citation_id
_citation_journal_full
_citation_year
_citation_journal_volume
_citation_page_first
_citation_page_last
_citation_journal_id_ASTM
primary 'Phosphorus, Sulfur and Silicon and the Related Elements' 2014 189 1841
1850 PSSLEC
loop_
_publ_author_name
'Ezzaafrani, Mustapha'
'Ennaciri, Abdelaziz'
'Harcharras, Mohammed'
'Capitelli, Francesco'
_cell_length_a 7.0350(3)
_cell_length_b 9.0470(3)
_cell_length_c 9.8800(2)
_cell_angle_alpha 116.551(3)
_cell_angle_beta 95.932(2)
_cell_angle_gamma 74.088(3)
_cell_volume 540.81
_cell_formula_units_Z 2
_symmetry_space_group_name_H-M 'P -1'
_symmetry_Int_Tables_number 2
_refine_ls_R_factor_all 0.0191
loop_
_symmetry_equiv_pos_site_id
_symmetry_equiv_pos_as_xyz
1 '-x, -y, -z'
2 'x, y, z'
loop_
_atom_type_symbol
_atom_type_oxidation_number
Ba2+ 2
P5+ 5
Na1+ 1
O2- -2
H1+ 1
loop_
_atom_site_label
_atom_site_type_symbol
_atom_site_symmetry_multiplicity
_atom_site_Wyckoff_symbol
_atom_site_fract_x
_atom_site_fract_y
_atom_site_fract_z
_atom_site_B_iso_or_equiv
_atom_site_occupancy
_atom_site_attached_hydrogens
Ba1 Ba2+ 2 i 0.050305(19) 0.236430(16) 0.191218(14) 0.02510(6) 1 0
P1 P5+ 2 i 0.14297(9) 0.68961(8) 0.41767(7) 0.02561(13) 1 0
P2 P5+ 2 i 0.19849(9) 0.77387(8) 0.17844(7) 0.02615(13) 1 0
P3 P5+ 2 i 0.45724(9) 0.47224(8) 0.19897(7) 0.02441(12) 1 0
Na1 Na1+ 2 i 0.78114(17) 0.63390(15) 0.13180(13) 0.0375(2) 1 0
O1 O2- 2 i 0.1397(3) 0.8210(2) 0.3486(2) 0.0294(3) 1 0
O2 O2- 2 i -0.0031(3) 0.5888(2) 0.3369(2) 0.0334(4) 1 0
O3 O2- 2 i 0.8656(3) 0.2165(3) 0.4161(2) 0.0356(4) 1 0
O4 O2- 2 i 0.4037(3) 0.6295(2) 0.1531(2) 0.0286(3) 1 0
O5 O2- 2 i 0.0539(3) 0.6932(3) 0.0694(2) 0.0358(4) 1 0
O6 O2- 2 i 0.2460(3) 0.9242(2) 0.1812(2) 0.0364(4) 1 0
O7 O2- 2 i 0.3651(3) 0.5674(2) 0.36901(19) 0.0276(3) 1 0
O8 O2- 2 i 0.3533(3) 0.3407(2) 0.1021(2) 0.0339(4) 1 0
O9 O2- 2 i 0.6744(3) 0.4285(3) 0.2093(2) 0.0344(4) 1 0
O10 O2- 2 i 0.6496(4) 0.9325(3) 0.2896(3) 0.0556(6) 1 0
O11 O2- 2 i 0.7613(3) 0.0294(3) 0.0775(2) 0.0381(4) 1 0
O12 O2- 2 i 0.3110(3) 0.2805(3) 0.4357(2) 0.0448(5) 1 0
H1 H1+ 2 i 0.655(13) 0.976(11) 0.3965(15) 0.15(3) 1 0
H2 H1+ 2 i 0.614(11) 1.046(4) 0.300(9) 0.14(3) 1 0
H3 H1+ 2 i 0.709(5) 0.013(5) 0.152(3) 0.046(10) 1 0
H4 H1+ 2 i 0.645(5) 0.096(6) 0.056(6) 0.080(15) 1 0
H5 H1+ 2 i 0.239(6) 0.315(6) 0.525(3) 0.063(12) 1 0
H6 H1+ 2 i 0.406(7) 0.344(7) 0.472(6) 0.094(18) 1 0
loop_
_atom_site_aniso_label
_atom_site_aniso_type_symbol
_atom_site_aniso_U_11
_atom_site_aniso_U_22
_atom_site_aniso_U_33
_atom_site_aniso_U_12
_atom_site_aniso_U_13
_atom_site_aniso_U_23
Ba1 Ba2+ 0.02557(9) 0.02377(9) 0.02608(9) -0.00555(6) -0.00049(5) 0.01143(6)
P1 P5+ 0.0265(3) 0.0264(3) 0.0242(3) -0.0068(2) 0.0011(2) 0.0110(2)
P2 P5+ 0.0261(3) 0.0266(3) 0.0278(3) -0.0044(2) 0.0007(2) 0.0148(2)
P3 P5+ 0.0229(3) 0.0238(3) 0.0264(3) -0.0051(2) 0.0001(2) 0.0113(2)
Na1 Na1+ 0.0364(6) 0.0443(6) 0.0377(6) -0.0154(5) -0.0042(4) 0.0210(5)
O1 O2- 0.0331(9) 0.0262(8) 0.0281(8) -0.0043(7) 0.0039(7) 0.0120(7)
O2 O2- 0.0285(9) 0.0333(9) 0.0390(10) -0.0108(7) -0.0010(7) 0.0148(8)
O3 O2- 0.0421(10) 0.0363(10) 0.0258(8) -0.0086(8) 0.0038(7) 0.0113(7)
O4 O2- 0.0286(8) 0.0260(8) 0.0312(8) -0.0025(7) 0.0046(7) 0.0142(7)
O5 O2- 0.0317(9) 0.0473(11) 0.0333(9) -0.0127(8) -0.0054(7) 0.0215(8)
O6 O2- 0.0387(10) 0.0295(9) 0.0454(11) -0.0048(8) 0.0046(8) 0.0214(8)
O7 O2- 0.0268(8) 0.0303(8) 0.0261(8) -0.0059(7) -0.0005(6) 0.0135(7)
O8 O2- 0.0374(10) 0.0329(9) 0.0317(9) -0.0150(8) -0.0005(7) 0.0111(7)
O9 O2- 0.0235(8) 0.0384(10) 0.0409(10) -0.0020(7) 0.0001(7) 0.0201(8)
O10 O2- 0.0469(13) 0.0467(13) 0.0608(15) -0.0079(11) 0.0050(11) 0.0140(12)
O11 O2- 0.0441(11) 0.0335(10) 0.0350(10) -0.0071(8) 0.0025(8) 0.0145(8)
O12 O2- 0.0441(12) 0.0579(13) 0.0354(10) -0.0237(10) -0.0056(9) 0.0180(10)
#End of TTdata_426631-ICSD