
#(C) 2019 by FIZ Karlsruhe - Leibniz Institute for Information Infrastructure.  All rights reserved.
data_426655-ICSD
_database_code_ICSD 426655
_audit_creation_date 2014-08-01
_chemical_name_systematic 'Sodium copper iridium oxide (0.86/0.33/0.67/2)'
_chemical_formula_structural 'Na0.86 (Cu0.33 Ir0.67) O2'
_chemical_formula_sum 'Cu0.33 Ir0.67 Na0.86 O2'
_chemical_name_structure_type Delafossite-NaFeO2
_exptl_crystal_density_diffrn 7.58
_cell_measurement_temperature 300.
_publ_section_title
'Structure and properties of alpha - Na Fe O2 - type ternary sodium iridates'
loop_
_citation_id
_citation_journal_full
_citation_year
_citation_journal_volume
_citation_page_first
_citation_page_last
_citation_journal_id_ASTM
primary 'Journal of Solid State Chemistry' 2014 210 195 205 JSSCBI
loop_
_publ_author_name
'Baroudi, Kristen'
'Yim, Cindi'
'Wu, Hui'
'Huang, Qingzhen'
'Roudebush, John H.'
'Vavilova, Eugenia'
'Grafe, Hans-Joachim'
'Kataev, Vladislav'
'Buechner, Bernd'
'Ji, Huiwen'
'Kuo, Changyang'
'Hu, Zhiwei'
'Pi, Tun-Wen'
'Pao, Chiwen'
'Lee, Jyhfu'
'Mikhailova, Daria'
'Tjeng, Liu Hao'
'Cava, R.J.'
_cell_length_a 3.094337(8)
_cell_length_b 3.094337(8)
_cell_length_c 16.02484(7)
_cell_angle_alpha 90.
_cell_angle_beta 90.
_cell_angle_gamma 120.
_cell_volume 132.88
_cell_formula_units_Z 3
_symmetry_space_group_name_H-M 'R -3 m H'
_symmetry_Int_Tables_number 166
_refine_ls_R_factor_all 0.0275
loop_
_symmetry_equiv_pos_site_id
_symmetry_equiv_pos_as_xyz
1 'x-y, -y, -z'
2 '-x, -x+y, -z'
3 'y, x, -z'
4 'x-y, x, -z'
5 'y, -x+y, -z'
6 '-x, -y, -z'
7 '-x+y, y, z'
8 'x, x-y, z'
9 '-y, -x, z'
10 '-x+y, -x, z'
11 '-y, x-y, z'
12 'x, y, z'
13 'x-y+2/3, -y+1/3, -z+1/3'
14 '-x+2/3, -x+y+1/3, -z+1/3'
15 'y+2/3, x+1/3, -z+1/3'
16 'x-y+2/3, x+1/3, -z+1/3'
17 'y+2/3, -x+y+1/3, -z+1/3'
18 '-x+2/3, -y+1/3, -z+1/3'
19 '-x+y+2/3, y+1/3, z+1/3'
20 'x+2/3, x-y+1/3, z+1/3'
21 '-y+2/3, -x+1/3, z+1/3'
22 '-x+y+2/3, -x+1/3, z+1/3'
23 '-y+2/3, x-y+1/3, z+1/3'
24 'x+2/3, y+1/3, z+1/3'
25 'x-y+1/3, -y+2/3, -z+2/3'
26 '-x+1/3, -x+y+2/3, -z+2/3'
27 'y+1/3, x+2/3, -z+2/3'
28 'x-y+1/3, x+2/3, -z+2/3'
29 'y+1/3, -x+y+2/3, -z+2/3'
30 '-x+1/3, -y+2/3, -z+2/3'
31 '-x+y+1/3, y+2/3, z+2/3'
32 'x+1/3, x-y+2/3, z+2/3'
33 '-y+1/3, -x+2/3, z+2/3'
34 '-x+y+1/3, -x+2/3, z+2/3'
35 '-y+1/3, x-y+2/3, z+2/3'
36 'x+1/3, y+2/3, z+2/3'
loop_
_atom_type_symbol
_atom_type_oxidation_number
Na1+ 1
Cu2+ 2
Ir3+ 3.7
O2- -2
loop_
_atom_site_label
_atom_site_type_symbol
_atom_site_symmetry_multiplicity
_atom_site_Wyckoff_symbol
_atom_site_fract_x
_atom_site_fract_y
_atom_site_fract_z
_atom_site_B_iso_or_equiv
_atom_site_occupancy
_atom_site_attached_hydrogens
Na1 Na1+ 3 b 0. 0. 0.5 0.0241(4) 0.861(4) 0
Cu1 Cu2+ 3 a 0. 0. 0. 0.00240(8) 0.3333 0
Ir1 Ir3+ 3 a 0. 0. 0. 0.00240(8) 0.6667 0
O1 O2- 6 c 0. 0. 0.26758(3) 0.01309(12) 1. 0
#End of TTdata_426655-ICSD