
#(C) 2019 by FIZ Karlsruhe - Leibniz Institute for Information Infrastructure.  All rights reserved.
data_426748-ICSD
_database_code_ICSD 426748
_audit_creation_date 2014-02-01
_chemical_name_systematic 'Trisodium neodymium cyclotriphosphate hexahydrate'
_chemical_formula_structural 'Na3 Nd (P3 O9)2 (H2 O)6'
_chemical_formula_sum 'H12 Na3 Nd1 O24 P6'
_exptl_crystal_density_diffrn 2.54
_cell_measurement_temperature 293.
_publ_section_title

;
Syntheses and Crystal Structures of the Cyclotriphosphate Hydrates Nd (P3 O9)
* 3 H2 O, Nd (P3 O9) * 4.5 H2 O, RE (P3 O9) * 5 H2 O (RE = Pr, Nd), and Na3 RE
(P3 O9)2 * 6 H2 O (RE = Pr, Nd)
;
loop_
_citation_id
_citation_journal_full
_citation_year
_citation_journal_volume
_citation_page_first
_citation_page_last
_citation_journal_id_ASTM
primary 'Zeitschrift fuer Anorganische und Allgemeine Chemie (1950) (DE)' 2014
640 46 52 ZAACAB
loop_
_publ_author_name
'Daub, Michael'
'Kazmierczak, Karolina'
'Hoeppe, Henning A.'
_cell_length_a 10.5978(18)
_cell_length_b 12.0725(15)
_cell_length_c 16.457(4)
_cell_angle_alpha 90.
_cell_angle_beta 99.742(17)
_cell_angle_gamma 90.
_cell_volume 2075.17
_cell_formula_units_Z 4
_symmetry_space_group_name_H-M 'P 1 21/n 1'
_symmetry_Int_Tables_number 14
_refine_ls_R_factor_all 0.0468
loop_
_symmetry_equiv_pos_site_id
_symmetry_equiv_pos_as_xyz
1 '-x+1/2, y+1/2, -z+1/2'
2 '-x, -y, -z'
3 'x+1/2, -y+1/2, z+1/2'
4 'x, y, z'
loop_
_atom_type_symbol
_atom_type_oxidation_number
Nd3+ 3
Na1+ 1
P5+ 5
O2- -2
P5+ 5
O2- -2
P5+ 5
O2- -2
P5+ 5
O2- -2
P5+ 5
O2- -2
P5+ 5
O2- -2
H1+ 1
O2- -2
H1+ 1
O2- -2
H1+ 1
O2- -2
H1+ 1
O2- -2
H1+ 1
O2- -2
H1+ 1
loop_
_atom_site_label
_atom_site_type_symbol
_atom_site_symmetry_multiplicity
_atom_site_Wyckoff_symbol
_atom_site_fract_x
_atom_site_fract_y
_atom_site_fract_z
_atom_site_B_iso_or_equiv
_atom_site_occupancy
_atom_site_attached_hydrogens
Nd1 Nd3+ 4 e 0.49233(10) 0.21982(10) 0.21768(7) 0.0440(5) 1 0
Na1 Na1+ 4 e 0.8031(7) 0.2164(7) 0.1525(5) 0.058(2) 1 0
Na2 Na1+ 4 e 1.1465(7) 0.2203(7) 0.1338(5) 0.061(2) 1 0
Na3 Na1+ 2 a 0.5 0.5 0.5 0.072(4) 1 0
Na4 Na1+ 4 e 0.1392(14) 0.5653(13) -0.0329(9) 0.050(4) 0.5 0
P1 P5+ 4 e 0.3284(4) -0.0230(4) 0.1271(3) 0.0309(13) 1 0
O1 O2- 4 e 0.2178(10) -0.0769(10) 0.0792(6) 0.036(3) 1 0
O2 O2- 4 e 0.3284(11) 0.0956(10) 0.1458(7) 0.036(3) 1 0
P2 P5+ 4 e 0.5990(4) -0.0293(4) 0.1287(3) 0.0297(13) 1 0
O3 O2- 4 e 0.6193(11) 0.0895(10) 0.1469(7) 0.036(3) 1 0
O4 O2- 4 e 0.6817(12) -0.0911(10) 0.0815(6) 0.041(3) 1 0
P3 P5+ 4 e 1.0003(5) 0.4307(4) 0.2236(3) 0.0310(12) 1 0
O5 O2- 4 e 0.9843(12) 0.3470(11) 0.1596(6) 0.043(4) 1 0
O6 O2- 4 e 0.9898(10) 0.5490(10) 0.1993(6) 0.029(3) 1 0
P4 P5+ 4 e 0.3411(5) 0.4736(5) 0.1423(3) 0.0381(15) 1 0
O7 O2- 4 e 0.3321(11) 0.3522(9) 0.1558(6) 0.033(3) 1 0
O8 O2- 4 e 0.2343(11) 0.5362(11) 0.0968(7) 0.046(4) 1 0
P5 P5+ 4 e 0.6121(5) 0.4731(5) 0.1468(3) 0.0348(14) 1 0
O9 O2- 4 e 0.6278(10) 0.3512(11) 0.1615(7) 0.040(3) 1 0
O10 O2- 4 e 0.7033(13) 0.5291(12) 0.1027(7) 0.053(4) 1 0
P6 P5+ 4 e 0.5124(5) 0.5017(4) 0.2938(3) 0.0328(13) 1 0
O11 O2- 4 e 0.5320(12) 0.5788(11) 0.3643(7) 0.045(4) 1 0
O12 O2- 4 e 0.5145(10) 0.3800(9) 0.3086(6) 0.028(3) 1 0
O13 O2- 4 e 0.4525(10) -0.0485(10) 0.0854(6) 0.033(3) 1 0
O14 O2- 4 e 0.8977(10) 0.4083(9) 0.2847(6) 0.028(3) 1 0
O15 O2- 4 e 1.1312(10) 0.4125(10) 0.2864(6) 0.032(3) 1 0
O16 O2- 4 e 0.4657(10) 0.4966(10) 0.1032(6) 0.035(3) 1 0
O17 O2- 4 e 0.6157(11) 0.5308(10) 0.2358(6) 0.034(3) 1 0
O18 O2- 4 e 0.3800(11) 0.5295(9) 0.2318(6) 0.028(3) 1 0
O19 O2- 4 e 0.3233(15) 0.2208(13) 0.3047(11) 0.078(5) 1 0
H1 H1+ 4 e 0.36(2) 0.149(9) 0.328(12) 0.1 1 0
H2 H1+ 4 e 0.36(2) 0.263(18) 0.354(9) 0.1 1 0
O20 O2- 4 e 0.7063(11) 0.2153(12) 0.3092(9) 0.053(4) 1 0
H3 H1+ 4 e 0.69(2) 0.151(11) 0.271(10) 0.1 1 0
H4 H1+ 4 e 0.641(14) 0.24(2) 0.341(11) 0.1 1 0
O21 O2- 4 e 0.7398(16) 0.2611(13) 0.0158(8) 0.064(4) 1 0
H5 H1+ 4 e 0.75(2) 0.197(11) -0.021(10) 0.1 1 0
H6 H1+ 4 e 0.70(2) 0.332(11) -0.005(14) 0.12(10) 1 0
O22 O2- 4 e 0.6147(14) 0.3322(14) 0.4937(8) 0.068(4) 1 0
H7 H1+ 4 e 0.694(11) 0.361(19) 0.477(11) 0.1 1 0
H8 H1+ 4 e 0.65(2) 0.299(18) 0.548(7) 0.1 1 0
O23 O2- 4 e 0.4599(18) 0.2489(19) 0.0331(18) 0.158(12) 1 0
H9 H1+ 4 e 0.402(18) 0.188(12) 0.011(11) 0.1 1 0
H10 H1+ 4 e 0.50(2) 0.28(2) -0.013(10) 0.1 1 0
O24 O2- 4 e 0.542(2) 0.1046(19) 0.4744(12) 0.125(8) 1 0
H11 H1+ 4 e 0.49(2) 0.064(17) 0.428(10) 0.1 1 0
H12 H1+ 4 e 0.611(15) 0.12(2) 0.522(9) 0.1 1 0
loop_
_atom_site_aniso_label
_atom_site_aniso_type_symbol
_atom_site_aniso_U_11
_atom_site_aniso_U_22
_atom_site_aniso_U_33
_atom_site_aniso_U_12
_atom_site_aniso_U_13
_atom_site_aniso_U_23
Nd1 Nd3+ 0.0256(6) 0.0155(6) 0.0939(9) -0.0025(6) 0.0186(5) -0.0086(7)
Na1 Na1+ 0.044(4) 0.038(5) 0.097(5) 0.002(4) 0.026(4) 0.000(5)
Na2 Na1+ 0.043(4) 0.039(5) 0.105(6) -0.008(4) 0.024(4) -0.017(5)
Na3 Na1+ 0.067(9) 0.067(10) 0.081(8) 0.010(7) 0.011(7) 0.035(7)
Na4 Na1+ 0.045(9) 0.035(11) 0.073(10) 0.012(8) 0.023(8) -0.002(8)
P1 P5+ 0.026(3) 0.022(4) 0.047(3) 0.002(2) 0.012(2) 0.003(3)
O1 O2- 0.024(7) 0.027(9) 0.051(7) -0.003(6) -0.005(6) -0.008(6)
O2 O2- 0.032(8) 0.013(9) 0.068(8) 0.003(6) 0.025(6) 0.004(6)
P2 P5+ 0.028(3) 0.022(3) 0.042(3) -0.003(2) 0.015(2) -0.001(2)
O3 O2- 0.030(7) 0.026(9) 0.052(7) -0.010(6) 0.015(6) 0.007(6)
O4 O2- 0.051(8) 0.035(9) 0.043(7) 0.002(7) 0.024(6) -0.005(6)
P3 P5+ 0.030(3) 0.026(3) 0.039(3) 0.000(3) 0.013(2) 0.000(3)
O5 O2- 0.047(8) 0.050(10) 0.033(6) -0.017(7) 0.009(5) -0.022(7)
O6 O2- 0.017(6) 0.026(8) 0.044(7) 0.017(6) 0.004(5) 0.012(6)
P4 P5+ 0.032(3) 0.032(4) 0.051(3) -0.002(3) 0.008(3) -0.003(3)
O7 O2- 0.042(8) 0.009(8) 0.054(7) -0.002(6) 0.021(6) -0.007(6)
O8 O2- 0.042(8) 0.042(10) 0.047(7) 0.001(7) -0.010(6) -0.003(6)
P5 P5+ 0.032(3) 0.029(4) 0.046(3) -0.005(3) 0.014(2) -0.003(3)
O9 O2- 0.019(7) 0.032(9) 0.074(8) 0.003(6) 0.025(6) -0.014(7)
O10 O2- 0.054(9) 0.057(11) 0.058(8) -0.027(8) 0.039(7) 0.000(7)
P6 P5+ 0.035(3) 0.026(3) 0.041(3) -0.002(3) 0.015(2) -0.003(3)
O11 O2- 0.057(9) 0.042(10) 0.042(7) -0.021(7) 0.027(6) -0.023(7)
O12 O2- 0.027(7) 0.011(7) 0.047(7) 0.011(6) 0.012(6) 0.000(6)
O13 O2- 0.024(7) 0.025(8) 0.051(7) 0.010(6) 0.011(6) 0.006(6)
O14 O2- 0.024(6) 0.011(8) 0.052(7) -0.012(5) 0.012(6) 0.002(6)
O15 O2- 0.025(7) 0.026(9) 0.042(7) 0.008(6) 0.002(6) 0.010(6)
O16 O2- 0.023(7) 0.037(9) 0.046(7) -0.001(6) 0.010(6) 0.000(6)
O17 O2- 0.028(7) 0.034(9) 0.038(7) -0.011(6) 0.001(6) -0.007(6)
O18 O2- 0.025(7) 0.016(8) 0.042(7) 0.000(6) 0.005(6) -0.003(6)
O19 O2- 0.076(11) 0.018(9) 0.162(15) 0.000(9) 0.081(11) -0.008(11)
O20 O2- 0.026(7) 0.011(8) 0.119(12) 0.000(7) -0.001(7) -0.004(8)
O21 O2- 0.096(11) 0.026(10) 0.072(10) -0.006(9) 0.017(8) -0.020(8)
O22 O2- 0.057(11) 0.078(13) 0.075(9) -0.019(9) 0.030(8) -0.001(9)
O23 O2- 0.065(13) 0.09(2) 0.32(3) 0.000(12) 0.019(16) -0.14(2)
O24 O2- 0.107(17) 0.13(2) 0.132(17) -0.021(14) 0.003(13) -0.074(14)
#End of TTdata_426748-ICSD