
#(C) 2019 by FIZ Karlsruhe - Leibniz Institute for Information Infrastructure.  All rights reserved.
data_426906-ICSD
_database_code_ICSD 426906
_audit_creation_date 2014-08-01
_chemical_name_systematic 'Disodium hexathiodiphosphate(V)'
_chemical_formula_structural 'Na2 P2 S6'
_chemical_formula_sum 'Na2 P2 S6'
_exptl_crystal_density_diffrn 2.12
_cell_measurement_temperature 298.
_publ_section_title

;
Synthesis and structural characterization of the alkali thiophosphates Na2 P2
S6, Na4 P2 S6, K4 P2 S6, and Rb4 P2 S6
;
loop_
_citation_id
_citation_journal_full
_citation_year
_citation_journal_volume
_citation_page_first
_citation_page_last
_citation_journal_id_ASTM
primary 'Zeitschrift fuer Anorganische und Allgemeine Chemie (1950) (DE)' 2014
640 689 692 ZAACAB
loop_
_publ_author_name
'Kuhn, Alexander'
'Eger, Roland'
'Nuss, Juergen'
'Lotsch, Bettina V.'
_cell_length_a 6.6752(13)
_cell_length_b 7.7968(16)
_cell_length_c 9.0379(18)
_cell_angle_alpha 90.
_cell_angle_beta 90.15(3)
_cell_angle_gamma 90.
_cell_volume 470.37
_cell_formula_units_Z 2
_symmetry_space_group_name_H-M 'P 1 21/m 1'
_symmetry_Int_Tables_number 11
_refine_ls_R_factor_all 0.0279
loop_
_symmetry_equiv_pos_site_id
_symmetry_equiv_pos_as_xyz
1 'x, -y+1/2, z'
2 '-x, -y, -z'
3 '-x, y+1/2, -z'
4 'x, y, z'
loop_
_atom_type_symbol
_atom_type_oxidation_number
P5+ 5
S2- -2
Na1+ 1
loop_
_atom_site_label
_atom_site_type_symbol
_atom_site_symmetry_multiplicity
_atom_site_Wyckoff_symbol
_atom_site_fract_x
_atom_site_fract_y
_atom_site_fract_z
_atom_site_B_iso_or_equiv
_atom_site_occupancy
_atom_site_attached_hydrogens
P1 P5+ 2 e 0.78740(5) 0.25 0.61218(4) 0.02434(9) 1 0
P2 P5+ 2 e 0.67768(6) 0.25 0.92294(4) 0.02631(9) 1 0
S1 S2- 4 f 0.23384(5) 0.55135(4) 0.22829(3) 0.03170(8) 1 0
S2 S2- 2 e 0.38372(6) 0.25 0.95122(5) 0.03316(10) 1 0
S3 S2- 2 e 0.54903(6) 0.25 0.48121(5) 0.03301(10) 1 0
S4 S2- 2 e 0.85596(7) 0.25 0.09575(5) 0.03776(11) 1 0
S5 S2- 2 e 0.05022(6) 0.25 0.51243(5) 0.03780(11) 1 0
Na1 Na1+ 4 f 0.28634(11) 0.01241(9) 0.71003(7) 0.05154(17) 1 0
loop_
_atom_site_aniso_label
_atom_site_aniso_type_symbol
_atom_site_aniso_U_11
_atom_site_aniso_U_22
_atom_site_aniso_U_33
_atom_site_aniso_U_12
_atom_site_aniso_U_13
_atom_site_aniso_U_23
P1 P5+ 0.02399(16) 0.02702(16) 0.02200(15) 0. 0.00166(11) 0.
P2 P5+ 0.03001(17) 0.02885(17) 0.02006(15) 0. -0.00045(12) 0.
S1 S2- 0.04320(16) 0.02614(13) 0.02577(13) -0.00453(9) 0.00278(10) -0.00159(8)
S2 S2- 0.03079(18) 0.0383(2) 0.03043(18) 0. 0.00400(13) 0.
S3 S2- 0.02860(17) 0.0386(2) 0.03181(18) 0. -0.00573(13) 0.
S4 S2- 0.0409(2) 0.0451(2) 0.02731(17) 0. -0.00935(15) 0.
S5 S2- 0.02920(18) 0.0455(2) 0.0387(2) 0. 0.01124(15) 0.
Na1 Na1+ 0.0725(4) 0.0372(3) 0.0449(3) 0.0009(3) -0.0036(3) -0.0042(2)
#End of TTdata_426906-ICSD