
#(C) 2019 by FIZ Karlsruhe - Leibniz Institute for Information Infrastructure.  All rights reserved.
data_427288-ICSD
_database_code_ICSD 427288
_audit_creation_date 2016-02-01
_chemical_name_systematic 'Sodium europium-0.01 gadonlinium-0.99 silicate'
_chemical_formula_structural 'Na ((Eu0.01 Gd0.99) Si O4)'
_chemical_formula_sum 'Eu0.01 Gd0.99 Na1 O4 Si1'
_exptl_crystal_density_diffrn 5.29
_cell_measurement_temperature 100.
_publ_section_title

;
Photoluminescent thermometer based on a phase-transition lanthanide silicate
with unusual structural disorder
;
loop_
_citation_id
_citation_journal_full
_citation_year
_citation_journal_volume
_citation_page_first
_citation_page_last
_citation_journal_id_ASTM
primary 'Journal of the American Chemical Society' 2015 137 3051 3058 JACSAT
loop_
_publ_author_name
'Ananias, Duarte'
'Almeida Paz, Filipe A.'
'Yufit, Dmitry S.'
'Carlos, Luis D.'
'Rocha, Joao'
_cell_length_a 6.8161(10)
_cell_length_b 5.4758(9)
_cell_length_c 9.1617(12)
_cell_angle_alpha 90.
_cell_angle_beta 90.
_cell_angle_gamma 90.
_cell_volume 341.94
_cell_formula_units_Z 4
_symmetry_space_group_name_H-M 'P n m a'
_symmetry_Int_Tables_number 62
_refine_ls_R_factor_all 0.021
loop_
_symmetry_equiv_pos_site_id
_symmetry_equiv_pos_as_xyz
1 'x+1/2, y, -z+1/2'
2 'x, -y+1/2, z'
3 '-x+1/2, y+1/2, z+1/2'
4 '-x, -y, -z'
5 '-x+1/2, -y, z+1/2'
6 '-x, y+1/2, -z'
7 'x+1/2, -y+1/2, -z+1/2'
8 'x, y, z'
loop_
_atom_type_symbol
_atom_type_oxidation_number
Gd3+ 3
Eu3+ 3
Si4+ 4
O2- -2
Na1+ 1
loop_
_atom_site_label
_atom_site_type_symbol
_atom_site_symmetry_multiplicity
_atom_site_Wyckoff_symbol
_atom_site_fract_x
_atom_site_fract_y
_atom_site_fract_z
_atom_site_B_iso_or_equiv
_atom_site_occupancy
_atom_site_attached_hydrogens
Gd1 Gd3+ 4 c -0.00309(6) 0.25 0.30122(4) 0.01500(14) 0.99 0
Eu1 Eu3+ 4 c -0.00309(6) 0.25 0.30122(4) 0.01500(14) 0.01 0
Si1 Si4+ 4 c 0.2287(3) 0.75 0.4136(2) 0.0087(4) 1 0
O1 O2- 8 d -0.0001(9) 0.8216(11) 0.4442(7) 0.0098(16) 0.5 0
O2 O2- 8 d 0.2588(13) 0.5166(19) 0.3103(10) 0.0129(13) 0.5 0
O3 O2- 8 d 0.3060(13) 0.5029(19) 0.3332(10) 0.0129(13) 0.5 0
O4 O2- 8 d 0.3336(9) 0.7073(18) 0.5707(6) 0.009(2) 0.5 0
Na1 Na1+ 4 c 0.1666(4) 0.75 0.0708(3) 0.0166(7) 1 0
loop_
_atom_site_aniso_label
_atom_site_aniso_type_symbol
_atom_site_aniso_U_11
_atom_site_aniso_U_22
_atom_site_aniso_U_33
_atom_site_aniso_U_12
_atom_site_aniso_U_13
_atom_site_aniso_U_23
Gd1 Gd3+ 0.0054(2) 0.0343(3) 0.00521(19) 0. -0.00028(18) 0.
Eu1 Eu3+ 0.0054(2) 0.0343(3) 0.00521(19) 0. -0.00028(18) 0.
Si1 Si4+ 0.0056(10) 0.0152(11) 0.0052(9) 0. 0.0007(9) 0.
O1 O2- 0.009(3) 0.011(3) 0.009(3) 0.003(3) 0.005(3) 0.001(2)
O4 O2- 0.007(3) 0.011(6) 0.009(3) 0.000(3) -0.001(2) 0.001(3)
Na1 Na1+ 0.0092(16) 0.030(2) 0.0105(15) 0. 0.0020(13) 0.
#End of TTdata_427288-ICSD