
#(C) 2019 by FIZ Karlsruhe - Leibniz Institute for Information Infrastructure.  All rights reserved.
data_427324-ICSD
_database_code_ICSD 427324
_audit_creation_date 2016-02-01
_chemical_name_systematic 'Bis(enneaaqua trisodium) octaicosaoxo-decavanadate'
_chemical_formula_structural '(Na3 (H2 O)9)2 (V10 O28)'
_chemical_formula_sum 'H36 Na6 O46 V10'
_exptl_crystal_density_diffrn 2.38
_cell_measurement_temperature 298.
_publ_section_title

;
Decavanadate-based discrete compound and coordination polymer: Synthesis,
crystal structures, spectroscopy and nano-materials
;
loop_
_citation_id
_citation_journal_full
_citation_year
_citation_journal_volume
_citation_page_first
_citation_page_last
_citation_journal_id_ASTM
primary Polyhedron 2014 81 147 153 PLYHDE
loop_
_publ_author_name
'Yerra, Sridevi'
'Tripuramallu, Bharat Kumar'
'Das, Samar K.'
_cell_length_a 8.5430(11)
_cell_length_b 10.8231(14)
_cell_length_c 11.6268(15)
_cell_angle_alpha 105.485(2)
_cell_angle_beta 99.414(2)
_cell_angle_gamma 101.233(2)
_cell_volume 989.38
_cell_formula_units_Z 1
_symmetry_space_group_name_H-M 'P -1'
_symmetry_Int_Tables_number 2
_refine_ls_R_factor_all 0.0251
loop_
_symmetry_equiv_pos_site_id
_symmetry_equiv_pos_as_xyz
1 '-x, -y, -z'
2 'x, y, z'
loop_
_atom_type_symbol
_atom_type_oxidation_number
V5+ 5
O2- -2
Na1+ 1
O2- -2
Na1+ 1
O2- -2
H1+ 1
loop_
_atom_site_label
_atom_site_type_symbol
_atom_site_symmetry_multiplicity
_atom_site_Wyckoff_symbol
_atom_site_fract_x
_atom_site_fract_y
_atom_site_fract_z
_atom_site_B_iso_or_equiv
_atom_site_occupancy
_atom_site_attached_hydrogens
V1 V5+ 2 i 0.68648(4) 0.49462(3) 0.48666(3) 0.01368(11) 1 0
V2 V5+ 2 i 0.45064(4) 0.57655(3) 0.29726(3) 0.01784(12) 1 0
V3 V5+ 2 i 0.41552(4) 0.23223(3) 0.44140(3) 0.01672(12) 1 0
V4 V5+ 2 i 0.54034(4) 0.30690(3) 0.22560(3) 0.01944(12) 1 0
V5 V5+ 2 i 0.19021(4) 0.31422(3) 0.25142(3) 0.01924(12) 1 0
O1 O2- 2 i 0.44106(15) 0.41787(12) 0.38606(12) 0.0151(3) 1 0
O2 O2- 2 i 0.62851(16) 0.35242(13) 0.55021(12) 0.0160(3) 1 0
O3 O2- 2 i 0.65464(16) 0.64239(13) 0.42869(12) 0.0162(3) 1 0
O4 O2- 2 i 0.52261(16) 0.18875(13) 0.31776(12) 0.0191(3) 1 0
O5 O2- 2 i 0.73972(16) 0.41024(14) 0.36033(13) 0.0189(3) 1 0
O6 O2- 2 i 0.86155(16) 0.58157(14) 0.59074(13) 0.0193(3) 1 0
O7 O2- 2 i 0.23990(17) 0.47664(14) 0.22395(12) 0.0213(3) 1 0
O8 O2- 2 i 0.40576(18) 0.10915(14) 0.49442(14) 0.0265(3) 1 0
O9 O2- 2 i 0.54493(17) 0.47075(14) 0.19712(12) 0.0216(3) 1 0
O10 O2- 2 i 0.21496(16) 0.19355(13) 0.34107(13) 0.0202(3) 1 0
O11 O2- 2 i 0.46216(19) 0.70246(15) 0.24725(14) 0.0277(3) 1 0
O12 O2- 2 i 0.32048(17) 0.24879(14) 0.15352(12) 0.0217(3) 1 0
Na1 Na1+ 2 i 0.97637(12) 0.74300(9) 0.19241(9) 0.0358(2) 1 0
Na2 Na1+ 2 i 0.95967(11) 0.76381(10) 0.47496(9) 0.0390(2) 1 0
O13 O2- 2 i 1.1601(2) 0.87002(18) 0.65686(17) 0.0329(4) 1 0
O14 O2- 2 i 1.0580(2) 0.94346(17) 0.14643(17) 0.0293(4) 1 0
O15 O2- 2 i 0.9650(2) 0.58609(19) 0.29481(19) 0.0396(4) 1 0
O16 O2- 2 i 1.1998(2) 0.8385(2) 0.38500(18) 0.0383(4) 1 0
O17 O2- 2 i 0.8312(2) 0.8580(2) 0.33191(19) 0.0390(4) 1 0
O18 O2- 2 i 1.1315(4) 0.6486(3) 0.0485(3) 0.0601(7) 1 0
O19 O2- 2 i 0.7333(3) 0.5920(3) 0.0531(2) 0.0602(7) 1 0
O20 O2- 2 i 0.62398(19) 0.23588(16) 0.12203(14) 0.0294(4) 1 0
O21 O2- 2 i 0.00657(18) 0.24666(15) 0.16955(14) 0.0292(4) 1 0
Na3 Na1+ 2 i 0.77898(10) 0.14287(8) -0.01249(7) 0.0269(2) 1 0
O22 O2- 2 i 0.5380(2) 0.0712(2) -0.16968(17) 0.0309(4) 1 0
O23 O2- 2 i 0.7391(2) -0.04284(19) 0.05757(17) 0.0300(4) 1 0
H1 H1+ 2 i 0.678(5) 0.613(4) 0.003(4) 0.072(13) 1 0
H2 H1+ 2 i 1.102(4) 0.997(3) 0.199(3) 0.047(10) 1 0
H3 H1+ 2 i 1.158(6) 0.596(5) 0.037(5) 0.11(2) 1 0
H4 H1+ 2 i 0.961(4) 0.956(3) 0.115(3) 0.051(9) 1 0
H5 H1+ 2 i 1.257(4) 0.796(3) 0.402(3) 0.041(8) 1 0
H6 H1+ 2 i 1.252(4) 0.905(3) 0.412(3) 0.045(10) 1 0
H7 H1+ 2 i 0.684(7) 0.568(6) 0.075(5) 0.11(2) 1 0
H8 H1+ 2 i 1.250(4) 0.849(3) 0.652(3) 0.046(8) 1 0
H9 H1+ 2 i 0.519(4) 0.013(4) -0.216(3) 0.058(12) 1 0
H10 H1+ 2 i 0.538(4) 0.113(3) -0.207(3) 0.042(10) 1 0
H11 H1+ 2 i 0.724(4) -0.096(3) 0.012(3) 0.035(10) 1 0
H12 H1+ 2 i 0.653(4) -0.050(3) 0.088(3) 0.048(9) 1 0
H13 H1+ 2 i 0.837(4) 0.925(3) 0.328(3) 0.047(10) 1 0
H14 H1+ 2 i 0.740(5) 0.833(4) 0.322(3) 0.061(11) 1 0
H15 H1+ 2 i 0.895(5) 0.525(4) 0.291(4) 0.087(14) 1 0
H16 H1+ 2 i 1.051(5) 0.560(4) 0.302(4) 0.089(14) 1 0
H17 H1+ 2 i 1.128(4) 0.842(3) 0.708(3) 0.057(10) 1 0
H18 H1+ 2 i 1.063(4) 0.627(4) -0.005(3) 0.053(15) 1 0
loop_
_atom_site_aniso_label
_atom_site_aniso_type_symbol
_atom_site_aniso_U_11
_atom_site_aniso_U_22
_atom_site_aniso_U_33
_atom_site_aniso_U_12
_atom_site_aniso_U_13
_atom_site_aniso_U_23
V1 V5+ 0.01251(19) 0.0131(2) 0.01494(19) 0.00354(14) 0.00377(14) 0.00297(14)
V2 V5+ 0.0228(2) 0.0165(2) 0.01517(19) 0.00545(15) 0.00447(14) 0.00603(14)
V3 V5+ 0.01834(19) 0.01156(19) 0.01904(19) 0.00332(14) 0.00444(14) 0.00294(14)
V4 V5+ 0.0196(2) 0.0199(2) 0.01639(19) 0.00604(15) 0.00581(14) -0.00011(14)
V5 V5+ 0.01552(19) 0.0198(2) 0.01715(19) 0.00280(14) 0.00067(14) 0.00011(14)
O1 O2- 0.0156(7) 0.0142(7) 0.0149(6) 0.0038(6) 0.0040(5) 0.0030(5)
O2 O2- 0.0167(7) 0.0147(7) 0.0178(7) 0.0057(5) 0.0043(5) 0.0053(5)
O3 O2- 0.0171(7) 0.0144(7) 0.0178(7) 0.0032(5) 0.0063(5) 0.0053(5)
O4 O2- 0.0204(7) 0.0136(7) 0.0219(7) 0.0047(6) 0.0065(6) 0.0016(6)
O5 O2- 0.0179(7) 0.0183(7) 0.0198(7) 0.0049(6) 0.0074(6) 0.0023(6)
O6 O2- 0.0146(7) 0.0190(7) 0.0213(7) 0.0042(6) 0.0025(5) 0.0023(6)
O7 O2- 0.0213(7) 0.0240(8) 0.0186(7) 0.0082(6) 0.0017(6) 0.0063(6)
O8 O2- 0.0304(8) 0.0166(7) 0.0352(8) 0.0067(6) 0.0099(7) 0.0104(6)
O9 O2- 0.0266(7) 0.0228(8) 0.0171(7) 0.0072(6) 0.0089(6) 0.0062(6)
O10 O2- 0.0180(7) 0.0157(7) 0.0229(7) 0.0014(6) 0.0042(6) 0.0020(6)
O11 O2- 0.0364(9) 0.0249(8) 0.0273(8) 0.0096(7) 0.0082(7) 0.0150(7)
O12 O2- 0.0219(7) 0.0218(8) 0.0165(7) 0.0046(6) 0.0033(6) -0.0010(6)
Na1 Na1+ 0.0452(6) 0.0300(5) 0.0375(5) 0.0091(4) 0.0168(4) 0.0148(4)
Na2 Na1+ 0.0341(5) 0.0416(6) 0.0369(5) 0.0010(4) 0.0052(4) 0.0127(4)
O13 O2- 0.0289(9) 0.0372(10) 0.0362(10) 0.0114(8) 0.0090(8) 0.0141(8)
O14 O2- 0.0305(9) 0.0242(9) 0.0316(9) 0.0085(8) 0.0077(7) 0.0046(8)
O15 O2- 0.0318(10) 0.0321(10) 0.0663(13) 0.0102(8) 0.0181(9) 0.0281(9)
O16 O2- 0.0278(9) 0.0301(11) 0.0520(12) 0.0056(9) 0.0013(8) 0.0103(9)
O17 O2- 0.0315(11) 0.0369(12) 0.0572(12) 0.0104(9) 0.0180(9) 0.0229(9)
O18 O2- 0.079(2) 0.0407(13) 0.082(2) 0.0265(14) 0.0466(19) 0.0275(14)
O19 O2- 0.0466(13) 0.092(2) 0.0375(12) -0.0013(13) 0.0061(10) 0.0287(12)
O20 O2- 0.0319(8) 0.0306(9) 0.0236(8) 0.0102(7) 0.0123(7) -0.0002(7)
O21 O2- 0.0210(8) 0.0310(9) 0.0269(8) 0.0031(7) -0.0025(6) 0.0018(7)
Na3 Na1+ 0.0264(4) 0.0297(5) 0.0245(4) 0.0081(4) 0.0084(3) 0.0061(4)
O22 O2- 0.0408(10) 0.0205(9) 0.0281(9) 0.0063(8) 0.0029(7) 0.0063(9)
O23 O2- 0.0322(9) 0.0245(9) 0.0246(9) 0.0030(7) 0.0057(7) -0.0032(8)
#End of TTdata_427324-ICSD