
#(C) 2019 by FIZ Karlsruhe - Leibniz Institute for Information Infrastructure.  All rights reserved.
data_427508-ICSD
_database_code_ICSD 427508
_audit_creation_date 2016-08-01
_chemical_name_systematic 'Sodium heteropolyhexamolybdenumnickelate(II)'
_chemical_formula_structural 'Na4 (Ni (O H)6 Mo6 O18) (H2 O)16'
_chemical_formula_sum 'H38 Mo6 Na4 Ni1 O40'
_exptl_crystal_density_diffrn 2.56
_cell_measurement_temperature 293.
_publ_section_title

;
Sodium heteropolyhexamolybdenumnickelate(II) Na4 [Ni (O H)6 Mo6 O18] * 16 H2 O
with an Anderson anion: Synthesis and crystal structure
;
loop_
_citation_id
_citation_journal_full
_citation_year
_citation_journal_volume
_citation_page_first
_citation_page_last
_citation_journal_id_ASTM
primary 'Journal of Structural Chemistry' 2015 56 926 933 JSTCAM
loop_
_publ_author_name
'Gumerova, N.I.'
'Melnik, N.A.'
'Rozantsev, G.M.'
'Baumer, V.N.'
'Radio, S.V.'
_cell_length_a 8.0586(4)
_cell_length_b 10.5445(6)
_cell_length_c 12.1374(5)
_cell_angle_alpha 69.557(5)
_cell_angle_beta 70.604(4)
_cell_angle_gamma 84.123(4)
_cell_volume 911.45
_cell_formula_units_Z 1
_symmetry_space_group_name_H-M 'P -1'
_symmetry_Int_Tables_number 2
_refine_ls_R_factor_all 0.0366
loop_
_symmetry_equiv_pos_site_id
_symmetry_equiv_pos_as_xyz
1 '-x, -y, -z'
2 'x, y, z'
loop_
_atom_type_symbol
_atom_type_oxidation_number
Mo6+ 6
Ni2+ 2
Na1+ 1
O2- -2
H1+ 1
O2- -2
H1+ 1
O2- -2
H1+ 1
O2- -2
H1+ 1
O2- -2
H1+ 1
O2- -2
H1+ 1
O2- -2
H1+ 1
O2- -2
H1+ 1
O2- -2
H1+ 1
O2- -2
H1+ 1
O2- -2
H1+ 1
loop_
_atom_site_label
_atom_site_type_symbol
_atom_site_symmetry_multiplicity
_atom_site_Wyckoff_symbol
_atom_site_fract_x
_atom_site_fract_y
_atom_site_fract_z
_atom_site_B_iso_or_equiv
_atom_site_occupancy
_atom_site_attached_hydrogens
Mo1 Mo6+ 2 i 0.151827(16) 0.733535(13) 0.722654(10) 0.02543(3) 1 0
Mo2 Mo6+ 2 i 0.296273(15) 0.725868(12) 0.949876(10) 0.02339(3) 1 0
Mo3 Mo6+ 2 i 0.130721(15) 0.500305(12) 1.231511(10) 0.02389(3) 1 0
Ni1 Ni2+ 1 c 0 0.5 1 0.01949(6) 1 0
Na1 Na1+ 2 i 0.22032(9) 1.13780(7) 0.58790(6) 0.03876(19) 1 0
Na2 Na1+ 2 i 0.39270(9) 1.12924(7) 0.82155(6) 0.03686(18) 1 0
O1 O2- 2 i 0.10778(9) 0.51047(6) 0.82069(7) 0.0235(2) 1 0
H1 H1+ 2 i 0.18730(14) 0.45787(10) 0.7962(2) 0.028 1 0
O2 O2- 2 i 0.03960(8) 0.70563(7) 0.92361(8) 0.0235(2) 1 0
H2 H1+ 2 i -0.04621(12) 0.75765(11) 0.9391(4) 0.028 1 0
O3 O2- 2 i 0.22978(9) 0.50574(6) 1.03488(8) 0.0229(2) 1 0
H3 H1+ 2 i 0.30721(14) 0.44851(10) 1.0175(3) 0.028 1 0
O4 O2- 2 i 0.34515(13) 0.70714(11) 0.79109(9) 0.0293(3) 1 0
O5 O2- 2 i 0.15078(13) 0.68866(10) 1.12468(8) 0.0264(3) 1 0
O6 O2- 2 i 0.08100(13) 0.31031(10) 1.26832(9) 0.0275(3) 1 0
O7 O2- 2 i 0.27666(15) 0.70760(12) 0.58632(10) 0.0384(3) 1 0
O8 O2- 2 i 0.12822(15) 0.90504(11) 0.68249(11) 0.0402(3) 1 0
O9 O2- 2 i 0.28077(15) 0.89785(11) 0.91428(10) 0.0366(3) 1 0
O10 O2- 2 i 0.50147(13) 0.69000(12) 0.96641(10) 0.0336(3) 1 0
O11 O2- 2 i 0.33601(14) 0.47885(12) 1.24820(10) 0.0356(3) 1 0
O12 O2- 2 i -0.00116(15) 0.52847(11) 1.36462(9) 0.0354(3) 1 0
O13 O2- 2 i 0.33455(6) 1.15947(6) 0.37116(7) 0.0380(3) 1 0
H4 H1+ 2 i 0.25092(6) 1.19417(15) 0.34277(9) 0.046 1 0
H5 H1+ 2 i 0.41419(7) 1.22072(9) 0.33766(17) 0.046 1 0
O14 O2- 2 i -0.05854(7) 1.24451(9) 0.57453(5) 0.0461(4) 1 0
H6 H1+ 2 i -0.13650(8) 1.28257(14) 0.54126(6) 0.055 1 0
H7 H1+ 2 i -0.11537(17) 1.19249(12) 0.64632(6) 0.055 1 0
O15 O2- 2 i 0.11017(6) 1.13914(5) 0.79649(10) 0.0380(3) 1 0
H8 H1+ 2 i 0.00699(7) 1.10871(6) 0.8156(2) 0.046 1 0
H9 H1+ 2 i 0.09783(15) 1.22339(5) 0.7849(2) 0.046 1 0
O16 O2- 2 i 0.50176(10) 1.09165(5) 0.62370(7) 0.0423(4) 1 0
H10 H1+ 2 i 0.5638(2) 1.15087(14) 0.55848(13) 0.051 1 0
H11 H1+ 2 i 0.56043(18) 1.02056(8) 0.6205(4) 0.051 1 0
O17 O2- 2 i 0.33175(8) 1.37492(9) 0.52250(4) 0.0582(5) 1 0
H12 H1+ 2 i 0.35008(16) 1.39540(16) 0.44517(4) 0.07 1 0
H13 H1+ 2 i 0.23163(10) 1.40726(13) 0.54987(8) 0.07 1 0
O18 O2- 2 i 0.26399(7) 1.13926(4) 1.02704(7) 0.0398(3) 1 0
H14 H1+ 2 i 0.32557(12) 1.19731(5) 1.03106(12) 0.048 1 0
H15 H1+ 2 i 0.31327(15) 1.06396(4) 1.05068(19) 0.048 1 0
O19 O2- 2 i 0.69499(8) 1.12014(4) 0.81236(6) 0.0418(3) 1 0
H16 H1+ 2 i 0.73408(14) 1.17067(5) 0.83984(7) 0.05 1 0
H17 H1+ 2 i 0.75579(13) 1.04878(5) 0.82408(12) 0.05 1 0
O20 O2- 2 i 0.40655(8) 1.36952(7) 0.73612(4) 0.0439(4) 1 0
H18 H1+ 2 i 0.47824(8) 1.42249(7) 0.73723(6) 0.053 1 0
H19 H1+ 2 i 0.41325(12) 1.39159(13) 0.66038(5) 0.053 1 0
loop_
_atom_site_aniso_label
_atom_site_aniso_type_symbol
_atom_site_aniso_U_11
_atom_site_aniso_U_22
_atom_site_aniso_U_33
_atom_site_aniso_U_12
_atom_site_aniso_U_13
_atom_site_aniso_U_23
Mo1 Mo6+ 0.03013(5) 0.02523(5) 0.01799(4) -0.00766(4) -0.00680(4) -0.00234(4)
Mo2 Mo6+ 0.02539(5) 0.02279(5) 0.02097(4) -0.00534(4) -0.00680(4) -0.00507(4)
Mo3 Mo6+ 0.02827(5) 0.02478(5) 0.01896(4) -0.00428(4) -0.00880(4) -0.00524(4)
Ni1 Ni2+ 0.02183(9) 0.01921(10) 0.01607(8) -0.00446(8) -0.00562(7) -0.00335(7)
Na1 Na1+ 0.0427(3) 0.0367(3) 0.0335(3) -0.0028(3) -0.0097(2) -0.0091(2)
Na2 Na1+ 0.0382(3) 0.0347(3) 0.0372(3) -0.0027(3) -0.0117(2) -0.0108(2)
O1 O2- 0.0243(4) 0.0261(4) 0.0183(3) -0.0009(4) -0.0058(3) -0.0060(3)
O2 O2- 0.0241(4) 0.0238(4) 0.0201(4) -0.0014(4) -0.0058(3) -0.0052(3)
O3 O2- 0.0241(4) 0.0211(4) 0.0235(4) -0.0017(3) -0.0071(3) -0.0073(3)
O4 O2- 0.0277(4) 0.0354(5) 0.0226(4) -0.0070(4) -0.0055(3) -0.0072(4)
O5 O2- 0.0322(4) 0.0263(4) 0.0202(4) -0.0019(4) -0.0068(3) -0.0080(3)
O6 O2- 0.0307(4) 0.0221(4) 0.0295(4) -0.0032(4) -0.0127(3) -0.0044(3)
O7 O2- 0.0389(5) 0.0502(6) 0.0224(4) -0.0103(5) -0.0032(4) -0.0109(4)
O8 O2- 0.0494(6) 0.0261(5) 0.0434(5) -0.0059(5) -0.0215(4) -0.0014(4)
O9 O2- 0.0480(6) 0.0233(5) 0.0365(5) -0.0056(5) -0.0124(4) -0.0071(4)
O10 O2- 0.0285(4) 0.0389(5) 0.0351(4) -0.0021(4) -0.0114(4) -0.0128(4)
O11 O2- 0.0348(4) 0.0340(5) 0.0422(5) 0.0008(4) -0.0200(4) -0.0104(4)
O12 O2- 0.0464(6) 0.0365(5) 0.0218(4) -0.0063(5) -0.0075(4) -0.0092(4)
O13 O2- 0.0375(5) 0.0359(6) 0.0328(5) -0.0001(5) -0.0102(4) -0.0030(4)
O14 O2- 0.0545(6) 0.0488(7) 0.0349(5) -0.0087(6) -0.0207(4) -0.0053(5)
O15 O2- 0.0369(5) 0.0374(6) 0.0398(5) 0.0012(5) -0.0125(4) -0.0131(4)
O16 O2- 0.0428(6) 0.0431(6) 0.0331(5) -0.0028(5) -0.0050(5) -0.0092(5)
O17 O2- 0.0646(8) 0.0593(8) 0.0457(7) -0.0107(7) -0.0049(6) -0.0203(6)
O18 O2- 0.0407(5) 0.0377(6) 0.0458(5) -0.0018(5) -0.0163(4) -0.0167(4)
O19 O2- 0.0420(5) 0.0476(6) 0.0414(5) -0.0038(5) -0.0162(4) -0.0176(4)
O20 O2- 0.0426(6) 0.0383(6) 0.0507(6) -0.0062(5) -0.0157(5) -0.0121(5)
#End of TTdata_427508-ICSD