
#(C) 2019 by FIZ Karlsruhe - Leibniz Institute for Information Infrastructure.  All rights reserved.
data_427714-ICSD
_database_code_ICSD 427714
_audit_creation_date 2015-02-01
_chemical_name_systematic 'Disodium amidosulfonate'
_chemical_formula_structural 'Na2 (N H S O3)'
_chemical_formula_sum 'H1 N1 Na2 O3 S1'
_exptl_crystal_density_diffrn 2.38
_cell_measurement_temperature 120.
_publ_section_title 'The gold(III) sulfates M Au2 (S O4)4 (M = Mg, Sr, Ba)'
loop_
_citation_id
_citation_journal_full
_citation_year
_citation_journal_volume
_citation_page_first
_citation_page_last
_citation_journal_id_ASTM
primary 'Zeitschrift fuer Anorganische und Allgemeine Chemie (1950) (DE)' 2014
640 2346 2346 ZAACAB
loop_
_publ_author_name
'Logemann, Christian'
'Wickleder, Mathias S.'
_cell_length_a 8.1190(2)
_cell_length_b 16.6759(5)
_cell_length_c 5.8102(2)
_cell_angle_alpha 90
_cell_angle_beta 90
_cell_angle_gamma 90
_cell_volume 786.65
_cell_formula_units_Z 8
_symmetry_space_group_name_H-M 'P c c n'
_symmetry_Int_Tables_number 56
_refine_ls_R_factor_all 0.044
loop_
_symmetry_equiv_pos_site_id
_symmetry_equiv_pos_as_xyz
1 'x, -y+1/2, z+1/2'
2 '-x+1/2, y, z+1/2'
3 'x+1/2, y+1/2, -z'
4 '-x, -y, -z'
5 '-x, y+1/2, -z+1/2'
6 'x+1/2, -y, -z+1/2'
7 '-x+1/2, -y+1/2, z'
8 'x, y, z'
loop_
_atom_type_symbol
_atom_type_oxidation_number
S4+ 4
Na1+ 1
O2- -2
N1- -1
Na1+ 1
H1+ 1
loop_
_atom_site_label
_atom_site_type_symbol
_atom_site_symmetry_multiplicity
_atom_site_Wyckoff_symbol
_atom_site_fract_x
_atom_site_fract_y
_atom_site_fract_z
_atom_site_B_iso_or_equiv
_atom_site_occupancy
_atom_site_attached_hydrogens
S1 S4+ 8 e 0.03132(5) 0.61847(2) 0.13690(7) 0.00462(10) 1 0
Na1 Na1+ 8 e 0.10769(10) 0.66892(5) 0.63442(14) 0.00816(15) 1 0
O1 O2- 8 e -0.03742(16) 0.57232(8) 0.3334(2) 0.0076(2) 1 0
O2 O2- 8 e 0.09358(17) 0.69594(8) 0.2286(2) 0.0083(2) 1 0
O3 O2- 8 e 0.17150(16) 0.57331(8) 0.0386(2) 0.0081(2) 1 0
N1 N1- 8 e -0.09601(19) 0.62977(9) -0.0634(3) 0.0079(2) 1 0
Na2 Na1+ 8 e 0.69073(10) 0.52926(5) 0.15704(13) 0.00712(15) 1 0
H1 H1+ 8 e -0.160(5) 0.669(2) -0.017(8) 0.030(10) 1 0
loop_
_atom_site_aniso_label
_atom_site_aniso_type_symbol
_atom_site_aniso_U_11
_atom_site_aniso_U_22
_atom_site_aniso_U_33
_atom_site_aniso_U_12
_atom_site_aniso_U_13
_atom_site_aniso_U_23
S1 S4+ 0.00471(16) 0.00498(16) 0.00417(17) -0.00050(11) 0.00021(11) -0.00031(11)
Na1 Na1+ 0.0079(3) 0.0091(3) 0.0075(3) 0.0003(2) 0.0009(2) -0.0007(2)
O1 O2- 0.0074(5) 0.0098(5) 0.0057(5) -0.0016(4) 0.0020(4) 0.0028(4)
O2 O2- 0.0113(5) 0.0049(5) 0.0086(5) -0.0021(4) -0.0026(4) -0.0007(4)
O3 O2- 0.0066(5) 0.0095(5) 0.0082(5) 0.0015(4) 0.0022(4) -0.0022(4)
N1 N1- 0.0076(5) 0.0096(6) 0.0067(5) -0.0001(4) -0.0023(5) 0.0001(4)
Na2 Na1+ 0.0076(3) 0.0075(3) 0.0063(3) 0.0007(2) 0.0004(2) 0.0000(2)
#End of TTdata_427714-ICSD