
#(C) 2019 by FIZ Karlsruhe - Leibniz Institute for Information Infrastructure.  All rights reserved.
data_427849-ICSD
_database_code_ICSD 427849
_audit_creation_date 2015-08-01
_chemical_name_systematic
'Sodium heptastrontium hexatriacontaoxo-octadecaborate'
_chemical_formula_structural 'Na Sr7 Al (B18 O36)'
_chemical_formula_sum 'Al1 B18 Na1 O36 Sr7'
_exptl_crystal_density_diffrn 3.49
_cell_measurement_temperature 290.
_publ_section_title

;
Synthesis, crystal structure, and spectrum properties of a new quaternary
borate Na Sr7 Al B18 O36 with the cyclic (B18 O36)(18-) group, notation of 6 x
(3(2Delta + 1T))
;
loop_
_citation_id
_citation_journal_full
_citation_year
_citation_journal_volume
_citation_page_first
_citation_page_last
_citation_journal_id_ASTM
primary 'Journal of Chemical Crystallography' 2014 44 572 579 JCCYEV
loop_
_publ_author_name
'Chen, Xuean'
'Wu, Long'
'Chang, Xinan'
'Xiao, Weiqiang'
_cell_length_a 11.3560(16)
_cell_length_b 11.3560(16)
_cell_length_c 36.655(7)
_cell_angle_alpha 90.
_cell_angle_beta 90.
_cell_angle_gamma 120.
_cell_volume 4093.69
_cell_formula_units_Z 6
_symmetry_space_group_name_H-M 'R -3 c H'
_symmetry_Int_Tables_number 167
_refine_ls_R_factor_all 0.031
loop_
_symmetry_equiv_pos_site_id
_symmetry_equiv_pos_as_xyz
1 'x-y, -y, -z+1/2'
2 '-x, -x+y, -z+1/2'
3 'y, x, -z+1/2'
4 'x-y, x, -z'
5 'y, -x+y, -z'
6 '-x, -y, -z'
7 '-x+y, y, z+1/2'
8 'x, x-y, z+1/2'
9 '-y, -x, z+1/2'
10 '-x+y, -x, z'
11 '-y, x-y, z'
12 'x, y, z'
13 'x-y+2/3, -y+1/3, -z+5/6'
14 '-x+2/3, -x+y+1/3, -z+5/6'
15 'y+2/3, x+1/3, -z+5/6'
16 'x-y+2/3, x+1/3, -z+1/3'
17 'y+2/3, -x+y+1/3, -z+1/3'
18 '-x+2/3, -y+1/3, -z+1/3'
19 '-x+y+2/3, y+1/3, z+5/6'
20 'x+2/3, x-y+1/3, z+5/6'
21 '-y+2/3, -x+1/3, z+5/6'
22 '-x+y+2/3, -x+1/3, z+1/3'
23 '-y+2/3, x-y+1/3, z+1/3'
24 'x+2/3, y+1/3, z+1/3'
25 'x-y+1/3, -y+2/3, -z+1/6'
26 '-x+1/3, -x+y+2/3, -z+1/6'
27 'y+1/3, x+2/3, -z+1/6'
28 'x-y+1/3, x+2/3, -z+2/3'
29 'y+1/3, -x+y+2/3, -z+2/3'
30 '-x+1/3, -y+2/3, -z+2/3'
31 '-x+y+1/3, y+2/3, z+1/6'
32 'x+1/3, x-y+2/3, z+1/6'
33 '-y+1/3, -x+2/3, z+1/6'
34 '-x+y+1/3, -x+2/3, z+2/3'
35 '-y+1/3, x-y+2/3, z+2/3'
36 'x+1/3, y+2/3, z+2/3'
loop_
_atom_type_symbol
_atom_type_oxidation_number
Sr2+ 2
Na1+ 1
Sr2+ 2
Na1+ 1
Al3+ 3
B3+ 3
O2- -2
loop_
_atom_site_label
_atom_site_type_symbol
_atom_site_symmetry_multiplicity
_atom_site_Wyckoff_symbol
_atom_site_fract_x
_atom_site_fract_y
_atom_site_fract_z
_atom_site_B_iso_or_equiv
_atom_site_occupancy
_atom_site_attached_hydrogens
Sr1 Sr2+ 36 f 0.03182(4) 0.33752(4) 0.146861(10) 0.01188(12) 0.9129(5) 0
Na1 Na1+ 36 f 0.03182(4) 0.33752(4) 0.146861(10) 0.01188(12) 0.0871(5) 0
Sr2 Sr2+ 12 c 0.3333 0.6667 -0.03090(2) 0.0121(2) 0.7614(16) 0
Na2 Na1+ 12 c 0.3333 0.6667 -0.03090(2) 0.0121(2) 0.2386(16) 0
Al1 Al3+ 6 b 0.3333 0.6667 0.1667 0.0047(5) 1 0
B1 B3+ 36 f 0.3369(4) 0.4970(4) 0.10828(12) 0.0091(9) 1 0
B2 B3+ 36 f 0.3454(5) 0.4837(4) 0.04259(12) 0.0109(8) 1 0
B3 B3+ 36 f 0.5244(4) 0.4658(4) 0.08122(10) 0.0044(7) 1 0
O1 O2- 36 f 0.2739(3) 0.5072(3) 0.13832(7) 0.0115(6) 1 0
O2 O2- 36 f 0.2782(3) 0.4842(3) 0.07459(7) 0.0127(6) 1 0
O3 O2- 36 f 0.4521(2) 0.4869(3) 0.11228(7) 0.0108(6) 1 0
O4 O2- 36 f 0.2868(3) 0.4750(3) 0.01045(7) 0.0112(6) 1 0
O5 O2- 36 f 0.4668(3) 0.4827(3) 0.04564(7) 0.0107(6) 1 0
O6 O2- 18 e 0.5152(3) 0.3333 0.0833 0.0081(8) 1 0
O7 O2- 18 e 0.6667 0.5775(3) 0.0833 0.0122(8) 1 0
loop_
_atom_site_aniso_label
_atom_site_aniso_type_symbol
_atom_site_aniso_U_11
_atom_site_aniso_U_22
_atom_site_aniso_U_33
_atom_site_aniso_U_12
_atom_site_aniso_U_13
_atom_site_aniso_U_23
Sr1 Sr2+ 0.0086(2) 0.0117(2) 0.01514(19) 0.00490(17) -0.00062(16) -0.00043(15)
Na1 Na1+ 0.0086(2) 0.0117(2) 0.01514(19) 0.00490(17) -0.00062(16) -0.00043(15)
Sr2 Sr2+ 0.0143(3) 0.0143(3) 0.0077(3) 0.00717(13) 0. 0.
Na2 Na1+ 0.0143(3) 0.0143(3) 0.0077(3) 0.00717(13) 0. 0.
Al1 Al3+ 0.0049(8) 0.0049(8) 0.0044(11) 0.0025(4) 0. 0.
B1 B3+ 0.0077(19) 0.005(2) 0.012(2) 0.0009(17) 0.0011(16) -0.0001(15)
B2 B3+ 0.011(2) 0.005(2) 0.013(2) 0.0017(18) -0.0002(16) 0.0031(17)
B3 B3+ 0.0054(19) 0.0047(19) 0.0044(16) 0.0034(15) 0.0006(15) 0.0003(15)
O1 O2- 0.0066(13) 0.0126(14) 0.0117(12) 0.0021(11) 0.0013(11) -0.0053(11)
O2 O2- 0.0145(14) 0.0221(15) 0.0059(12) 0.0124(13) -0.0015(10) 0.0000(11)
O3 O2- 0.0096(14) 0.0135(14) 0.0107(13) 0.0070(12) -0.0016(10) -0.0034(11)
O4 O2- 0.0113(14) 0.0123(14) 0.0098(13) 0.0057(12) -0.0021(11) 0.0005(11)
O5 O2- 0.0091(13) 0.0091(13) 0.0129(13) 0.0037(12) 0.0009(10) -0.0005(10)
O6 O2- 0.0072(14) 0.0076(18) 0.0098(18) 0.0038(9) 0.0005(7) 0.0010(14)
O7 O2- 0.0093(19) 0.0109(14) 0.0159(19) 0.0047(10) -0.0007(15) -0.0004(8)
#End of TTdata_427849-ICSD