
#(C) 2019 by FIZ Karlsruhe - Leibniz Institute for Information Infrastructure.  All rights reserved.
data_427974-ICSD
_database_code_ICSD 427974
_audit_creation_date 2018-02-01
_chemical_name_systematic

;
Zinc hexaaqua disodium hexaaqua tetraaqua zinc diaqua decavanadate
tetrahydrate
;
_chemical_formula_structural
'(Zn (H2 O)6) ((Na2 (H2 O)6 (H2 O)4 Zn (H2 O)2) V10 O28) (H2 O)4'
_chemical_formula_sum 'H44 Na2 O50 V10 Zn2'
_exptl_crystal_density_diffrn 2.43
_cell_measurement_temperature 298.
_publ_section_title

;
Organic free decavanadate based materials: Inorganic linkers to obtain
extended structures
;
loop_
_citation_id
_citation_journal_full
_citation_year
_citation_journal_volume
_citation_page_first
_citation_page_last
_citation_journal_id_ASTM
primary 'Journal of Molecular Structure' 2017 1146 23 31 JMOSB4
loop_
_publ_author_name
'Yerra, Sridevi'
'Das, Samar K.'
_cell_length_a 8.3477(7)
_cell_length_b 10.8486(12)
_cell_length_c 12.5864(11)
_cell_angle_alpha 109.934(9)
_cell_angle_beta 93.329(7)
_cell_angle_gamma 100.051(8)
_cell_volume 1046.55
_cell_formula_units_Z 1
_symmetry_space_group_name_H-M 'P -1'
_symmetry_Int_Tables_number 2
_refine_ls_R_factor_all 0.0317
loop_
_symmetry_equiv_pos_site_id
_symmetry_equiv_pos_as_xyz
1 '-x, -y, -z'
2 'x, y, z'
loop_
_atom_type_symbol
_atom_type_oxidation_number
H1+ 1
Zn2+ 2
V5+ 5
Na1+ 1
O2- -2
loop_
_atom_site_label
_atom_site_type_symbol
_atom_site_symmetry_multiplicity
_atom_site_Wyckoff_symbol
_atom_site_fract_x
_atom_site_fract_y
_atom_site_fract_z
_atom_site_B_iso_or_equiv
_atom_site_occupancy
_atom_site_attached_hydrogens
H1 H1+ 2 i 0.258(4) 0.492(3) 0.113(3) 0.019(10) 1 0
H2 H1+ 2 i 0.759(5) 1.003(4) 0.386(2) 0.047(13) 1 0
H3 H1+ 2 i 0.793(4) 0.957(3) 0.470(3) 0.023(10) 1 0
H4 H1+ 2 i 0.639(3) 0.366(3) 0.107(3) 0.023(11) 1 0
H5 H1+ 2 i 0.726(3) 0.722(3) 0.109(3) 0.031(11) 1 0
H6 H1+ 2 i 0.639(3) 0.130(4) 0.869(3) 0.034(12) 1 0
H7 H1+ 2 i -0.135(5) 0.812(4) 0.5468(16) 0.039(13) 1 0
H8 H1+ 2 i 0.476(3) 0.333(3) 0.105(4) 0.050(14) 1 0
H9 H1+ 2 i 0.246(4) 0.598(3) 0.084(3) 0.040(12) 1 0
H10 H1+ 2 i 0.477(3) 0.082(4) 0.853(3) 0.041(13) 1 0
H11 H1+ 2 i -0.212(4) 0.741(4) 0.441(3) 0.077(19) 1 0
H12 H1+ 2 i 0.461(4) 0.764(3) 0.362(3) 0.022(10) 1 0
H13 H1+ 2 i 0.369(3) 1.103(4) 0.360(3) 0.044(13) 1 0
H14 H1+ 2 i 0.433(5) 0.847(4) 0.307(3) 0.060(16) 1 0
H15 H1+ 2 i 0.575(4) 0.729(4) 0.133(5) 0.09(2) 1 0
H16 H1+ 2 i 0.104(6) 0.557(6) 0.491(6) 0.12(4) 1 0
H17 H1+ 2 i 0.254(6) 0.571(7) 0.457(6) 0.12(3) 1 0
H18 H1+ 2 i 0.012(6) 0.533(6) 0.257(4) 0.10(3) 1 0
H19 H1+ 2 i 0.532(3) 1.156(4) 0.383(3) 0.042(13) 1 0
H20 H1+ 2 i 0.599(7) 0.596(5) 0.277(2) 0.09(2) 1 0
H21 H1+ 2 i 0.511(8) 0.554(5) 0.351(5) 0.16(4) 1 0
H22 H1+ 2 i -0.062(7) 0.572(6) 0.178(2) 0.09(2) 1 0
Zn1 Zn2+ 1 f 0.5 1. 0.5 0.02161(16) 1 0
Zn2 Zn2+ 1 e 0.5 0.5 0. 0.02650(17) 1 0
V1 V5+ 2 i -0.18245(7) 0.73197(6) -0.23949(5) 0.01863(16) 1 0
V2 V5+ 2 i 0.02525(7) 0.74994(6) -0.01911(5) 0.01470(15) 1 0
V3 V5+ 2 i -0.20094(6) 0.95637(5) -0.01390(4) 0.01244(15) 1 0
V4 V5+ 2 i 0.01701(7) 0.97479(6) 0.20688(4) 0.01515(15) 1 0
V5 V5+ 2 i -0.19044(7) 1.18728(6) 0.21326(5) 0.01915(16) 1 0
Na1 Na1+ 2 i 0.11179(17) 0.76113(15) 0.39582(12) 0.0300(4) 1 0
O1 O2- 2 i -0.3232(3) 0.6201(3) -0.3286(2) 0.0316(6) 1 0
O2 O2- 2 i 0.0056(3) 0.6981(2) -0.29918(18) 0.0199(5) 1 0
O3 O2- 2 i -0.1398(3) 0.6528(2) -0.13186(18) 0.0177(5) 1 0
O4 O2- 2 i -0.3203(2) 0.8274(2) -0.12040(18) 0.0181(5) 1 0
O5 O2- 2 i 0.0027(2) 0.9016(2) -0.09797(17) 0.0129(5) 1 0
O6 O2- 2 i 0.1862(3) 0.7229(2) -0.11007(18) 0.0184(5) 1 0
O7 O2- 2 i 0.0399(3) 0.6519(2) 0.05047(19) 0.0225(5) 1 0
O8 O2- 2 i -0.1692(2) 1.0826(2) -0.08924(17) 0.0137(5) 1 0
O9 O2- 2 i -0.3227(3) 1.0286(2) 0.07905(18) 0.0180(5) 1 0
O10 O2- 2 i -0.1307(2) 0.8504(2) 0.06965(17) 0.0123(5) 1 0
O11 O2- 2 i 0.0376(3) 0.8769(2) 0.27532(19) 0.0240(6) 1 0
O12 O2- 2 i 0.1783(3) 1.1229(2) 0.28684(18) 0.0175(5) 1 0
O13 O2- 2 i -0.1493(3) 1.0504(2) 0.26560(18) 0.0171(5) 1 0
O14 O2- 2 i -0.3346(3) 1.2358(3) 0.2841(2) 0.0295(6) 1 0
O15 O2- 2 i -0.0504(5) 0.5800(3) 0.2475(3) 0.0469(8) 1 0
O16 O2- 2 i -0.1314(3) 0.8005(3) 0.4781(2) 0.0305(6) 1 0
O17 O2- 2 i 0.1793(12) 0.6125(5) 0.4774(4) 0.1050(19) 1 0
O18 O2- 2 i 0.4065(3) 0.8227(3) 0.3607(2) 0.0272(6) 1 0
O19 O2- 2 i 0.4540(3) 1.1169(3) 0.4072(2) 0.0290(6) 1 0
O20 O2- 2 i 0.7446(3) 1.0127(3) 0.4557(2) 0.0245(6) 1 0
O21 O2- 2 i 0.5523(3) 0.3935(3) 0.1075(3) 0.0326(7) 1 0
O22 O2- 2 i 0.3137(3) 0.5519(3) 0.0945(2) 0.0302(6) 1 0
O23 O2- 2 i 0.6427(4) 0.6744(3) 0.1203(3) 0.0392(7) 1 0
O24 O2- 2 i 0.5809(4) 0.6190(4) 0.3447(3) 0.0506(8) 1 0
O25 O2- 2 i 0.5494(3) 0.1296(3) 0.8336(2) 0.0297(6) 1 0
loop_
_atom_site_aniso_label
_atom_site_aniso_type_symbol
_atom_site_aniso_U_11
_atom_site_aniso_U_22
_atom_site_aniso_U_33
_atom_site_aniso_U_12
_atom_site_aniso_U_13
_atom_site_aniso_U_23
Zn1 Zn2+ 0.0197(3) 0.0254(4) 0.0197(3) 0.0038(2) 0.0024(2) 0.0084(3)
Zn2 Zn2+ 0.0188(3) 0.0239(4) 0.0415(4) 0.0037(3) 0.0075(3) 0.0172(3)
V1 V5+ 0.0222(3) 0.0143(3) 0.0152(3) -0.0016(2) -0.0008(2) 0.0032(2)
V2 V5+ 0.0184(3) 0.0109(3) 0.0165(3) 0.0045(2) 0.0043(2) 0.0059(2)
V3 V5+ 0.0104(3) 0.0125(3) 0.0151(3) 0.0011(2) 0.0018(2) 0.0065(2)
V4 V5+ 0.0199(3) 0.0140(3) 0.0120(3) 0.0021(2) 0.0015(2) 0.0061(2)
V5 V5+ 0.0224(3) 0.0173(3) 0.0192(3) 0.0063(3) 0.0101(2) 0.0061(3)
Na1 Na1+ 0.0307(8) 0.0304(9) 0.0309(8) 0.0087(7) 0.0038(6) 0.0124(7)
O1 O2- 0.0336(15) 0.0254(16) 0.0251(14) -0.0051(12) -0.0053(11) 0.0025(12)
O2 O2- 0.0276(13) 0.0145(13) 0.0155(12) 0.0041(10) 0.0064(10) 0.0023(10)
O3 O2- 0.0218(12) 0.0112(13) 0.0190(12) 0.0008(10) 0.0034(10) 0.0053(10)
O4 O2- 0.0136(11) 0.0186(13) 0.0201(13) -0.0015(10) 0.0004(10) 0.0068(10)
O5 O2- 0.0126(11) 0.0137(13) 0.0129(11) 0.0014(9) 0.0021(9) 0.0059(10)
O6 O2- 0.0204(12) 0.0171(13) 0.0208(13) 0.0074(10) 0.0068(10) 0.0082(10)
O7 O2- 0.0302(13) 0.0171(13) 0.0253(13) 0.0073(11) 0.0069(11) 0.0123(11)
O8 O2- 0.0122(11) 0.0149(13) 0.0157(12) 0.0021(9) 0.0014(9) 0.0080(10)
O9 O2- 0.0133(11) 0.0201(14) 0.0220(13) 0.0043(10) 0.0048(10) 0.0085(10)
O10 O2- 0.0119(11) 0.0108(12) 0.0153(12) 0.0000(9) 0.0027(9) 0.0071(9)
O11 O2- 0.0326(14) 0.0229(15) 0.0203(13) 0.0054(11) 0.0024(11) 0.0127(11)
O12 O2- 0.0223(12) 0.0170(13) 0.0115(12) 0.0007(10) -0.0010(9) 0.0053(10)
O13 O2- 0.0224(12) 0.0148(13) 0.0146(12) 0.0025(10) 0.0062(9) 0.0058(10)
O14 O2- 0.0289(14) 0.0286(16) 0.0333(15) 0.0118(12) 0.0178(12) 0.0091(12)
O15 O2- 0.071(2) 0.0266(19) 0.038(2) 0.0084(17) 0.0070(17) 0.0068(15)
O16 O2- 0.0331(16) 0.0367(18) 0.0209(15) 0.0078(14) 0.0070(12) 0.0083(13)
O17 O2- 0.224(6) 0.068(3) 0.041(2) 0.086(4) 0.013(3) 0.016(2)
O18 O2- 0.0288(15) 0.0297(17) 0.0229(15) 0.0078(12) 0.0039(11) 0.0083(12)
O19 O2- 0.0201(14) 0.0405(18) 0.0354(16) 0.0044(13) 0.0039(13) 0.0255(14)
O20 O2- 0.0235(14) 0.0336(17) 0.0220(15) 0.0107(12) 0.0080(11) 0.0139(12)
O21 O2- 0.0181(14) 0.0326(17) 0.0609(19) 0.0097(13) 0.0137(14) 0.0307(15)
O22 O2- 0.0207(13) 0.0244(16) 0.0559(19) 0.0065(12) 0.0136(13) 0.0251(14)
O23 O2- 0.0338(16) 0.0287(17) 0.0508(19) -0.0077(14) 0.0153(14) 0.0142(14)
O24 O2- 0.046(2) 0.044(2) 0.048(2) 0.0037(16) 0.0040(16) 0.0030(17)
O25 O2- 0.0214(14) 0.0394(18) 0.0349(16) 0.0070(13) 0.0037(13) 0.0211(14)
#End of TTdata_427974-ICSD