
#(C) 2019 by FIZ Karlsruhe - Leibniz Institute for Information Infrastructure.  All rights reserved.
data_427992-ICSD
_database_code_ICSD 427992
_audit_creation_date 2016-02-01
_chemical_name_systematic 'Sodium europium-0.01 gadonlinium-0.99 silicate'
_chemical_formula_structural 'Na ((Eu0.01 Gd0.99) Si O4)'
_chemical_formula_sum 'Eu0.01 Gd0.99 Na1 O4 Si1'
_exptl_crystal_density_diffrn 5.33
_cell_measurement_temperature 30.
_publ_section_title

;
Photoluminescent thermometer based on a phase-transition lanthanide silicate
with unusual structural disorder
;
loop_
_citation_id
_citation_journal_full
_citation_year
_citation_journal_volume
_citation_page_first
_citation_page_last
_citation_journal_id_ASTM
primary 'Journal of the American Chemical Society' 2015 137 3051 3058 JACSAT
loop_
_publ_author_name
'Ananias, Duarte'
'Almeida Paz, Filipe A.'
'Yufit, Dmitry S.'
'Carlos, Luis D.'
'Rocha, Joao'
_cell_length_a 6.8051(11)
_cell_length_b 5.4529(9)
_cell_length_c 9.1425(15)
_cell_angle_alpha 90
_cell_angle_beta 90
_cell_angle_gamma 90
_cell_volume 339.25
_cell_formula_units_Z 4
_symmetry_space_group_name_H-M 'I m m a'
_symmetry_Int_Tables_number 74
_refine_ls_R_factor_all 0.0311
loop_
_symmetry_equiv_pos_site_id
_symmetry_equiv_pos_as_xyz
1 '-x, y+1/2, -z'
2 '-x, -y+1/2, z'
3 '-x, y, z'
4 '-x, -y, -z'
5 'x, -y+1/2, z'
6 'x, y+1/2, -z'
7 'x, -y, -z'
8 'x, y, z'
9 '-x+1/2, y, -z+1/2'
10 '-x+1/2, -y, z+1/2'
11 '-x+1/2, y+1/2, z+1/2'
12 '-x+1/2, -y+1/2, -z+1/2'
13 'x+1/2, -y, z+1/2'
14 'x+1/2, y, -z+1/2'
15 'x+1/2, -y+1/2, -z+1/2'
16 'x+1/2, y+1/2, z+1/2'
loop_
_atom_type_symbol
_atom_type_oxidation_number
Gd3+ 3
Eu3+ 3
Si4+ 4
O2- -2
Na1+ 1
loop_
_atom_site_label
_atom_site_type_symbol
_atom_site_symmetry_multiplicity
_atom_site_Wyckoff_symbol
_atom_site_fract_x
_atom_site_fract_y
_atom_site_fract_z
_atom_site_B_iso_or_equiv
_atom_site_occupancy
_atom_site_attached_hydrogens
Gd1 Gd3+ 4 e 0.5 0.25 0.69896(8) 0.0156(3) 0.99 0
Eu1 Eu3+ 4 e 0.5 0.25 0.69896(8) 0.0156(3) 0.01 0
Si1 Si4+ 8 i 0.2714(9) 0.25 0.4136(6) 0.0082(11) 0.5 0
O1 O2- 8 h 0.5 0.177(2) 0.4451(14) 0.015(3) 0.5 0
O2 O2- 16 j 0.221(2) 0.008(2) 0.3214(10) 0.032(3) 0.5 0
O3 O2- 8 i 0.166(2) 0.25 0.5725(15) 0.028(4) 0.5 0
Na1 Na1+ 8 i 0.1662(14) 0.25 0.4298(9) 0.018(2) 0.5 0
loop_
_atom_site_aniso_label
_atom_site_aniso_type_symbol
_atom_site_aniso_U_11
_atom_site_aniso_U_22
_atom_site_aniso_U_33
_atom_site_aniso_U_12
_atom_site_aniso_U_13
_atom_site_aniso_U_23
Gd1 Gd3+ 0.0056(4) 0.0342(5) 0.0071(3) 0. 0. 0.
Eu1 Eu3+ 0.0056(4) 0.0342(5) 0.0071(3) 0. 0. 0.
Si1 Si4+ 0.005(3) 0.012(3) 0.007(2) 0. -0.003(2) 0.
O1 O2- 0.012(6) 0.014(9) 0.017(7) 0. 0. 0.001(5)
O2 O2- 0.060(9) 0.007(5) 0.027(6) 0.005(5) -0.024(6) -0.004(4)
O3 O2- 0.025(7) 0.054(8) 0.006(6) 0. 0.000(5) 0.
Na1 Na1+ 0.005(4) 0.030(5) 0.018(5) 0. -0.004(4) 0.
#End of TTdata_427992-ICSD