
#(C) 2019 by FIZ Karlsruhe - Leibniz Institute for Information Infrastructure.  All rights reserved.
data_428005-ICSD
_database_code_ICSD 428005
_audit_creation_date 2015-02-01
_chemical_name_systematic 'Sodium boron disulfate'
_chemical_formula_structural 'Na (B (S O4)2)'
_chemical_formula_sum 'B1 Na1 O8 S2'
_exptl_crystal_density_diffrn 2.48
_cell_measurement_temperature 293.
_publ_section_title

;
Further new borosulfates: synthesis, crystal structure, and vibrational
spectra of A (B (S O4)2) (A = Na, K, N H4) and the crystal structures of Li5
(B (S O4)4) and N H4 (B (S2 O7)2)
;
loop_
_citation_id
_citation_journal_full
_citation_year
_citation_journal_volume
_citation_page_first
_citation_page_last
_citation_journal_id_ASTM
primary 'Zeitschrift fuer Anorganische und Allgemeine Chemie (1950) (DE)' 2014
640 2914 2921 ZAACAB
loop_
_publ_author_name
'Daub, Michael'
'Hoeppe, Henning A.'
'Hillebrecht, Harald'
_cell_length_a 5.434(5)
_cell_length_b 7.570(7)
_cell_length_c 7.766(8)
_cell_angle_alpha 90
_cell_angle_beta 108.56(3)
_cell_angle_gamma 90
_cell_volume 302.84
_cell_formula_units_Z 2
_symmetry_space_group_name_H-M 'P 1 2/c 1'
_symmetry_Int_Tables_number 13
_refine_ls_R_factor_all 0.0335
loop_
_symmetry_equiv_pos_site_id
_symmetry_equiv_pos_as_xyz
1 'x, -y, z+1/2'
2 '-x, -y, -z'
3 '-x, y, -z+1/2'
4 'x, y, z'
loop_
_atom_type_symbol
_atom_type_oxidation_number
S6+ 6
Na1+ 1
O2- -2
B3+ 3
loop_
_atom_site_label
_atom_site_type_symbol
_atom_site_symmetry_multiplicity
_atom_site_Wyckoff_symbol
_atom_site_fract_x
_atom_site_fract_y
_atom_site_fract_z
_atom_site_B_iso_or_equiv
_atom_site_occupancy
_atom_site_attached_hydrogens
S1 S6+ 4 g 0.13193(14) 0.22367(8) -0.00286(10) 0.0129(3) 1 0
Na1 Na1+ 2 f 0.5 0.5681(2) 0.25 0.0232(5) 1 0
O1 O2- 4 g -0.1276(5) 0.2836(3) -0.0830(4) 0.0216(6) 1 0
O2 O2- 4 g 0.1805(4) 0.0610(3) -0.1044(3) 0.0155(5) 1 0
O3 O2- 4 g 0.1763(4) 0.1547(3) 0.1887(3) 0.0174(5) 1 0
O4 O2- 4 g 0.3368(5) 0.3457(3) 0.0108(3) 0.0205(6) 1 0
B1 B3+ 2 e 0. -0.0422(6) -0.25 0.0134(9) 1 0
loop_
_atom_site_aniso_label
_atom_site_aniso_type_symbol
_atom_site_aniso_U_11
_atom_site_aniso_U_22
_atom_site_aniso_U_33
_atom_site_aniso_U_12
_atom_site_aniso_U_13
_atom_site_aniso_U_23
S1 S6+ 0.0179(4) 0.0102(4) 0.0109(5) -0.0016(2) 0.0049(4) 0.0000(2)
Na1 Na1+ 0.0214(10) 0.0236(9) 0.0212(13) 0. 0.0021(9) 0.
O1 O2- 0.0202(12) 0.0233(12) 0.0207(16) 0.0065(9) 0.0057(11) 0.0002(9)
O2 O2- 0.0166(11) 0.0143(10) 0.0133(15) -0.0002(7) 0.0016(11) -0.0035(7)
O3 O2- 0.0223(12) 0.0200(11) 0.0102(14) -0.0052(8) 0.0056(10) 0.0002(8)
O4 O2- 0.0280(13) 0.0166(11) 0.0191(15) -0.0095(8) 0.0106(11) -0.0017(8)
B1 B3+ 0.017(2) 0.013(2) 0.010(3) 0. 0.004(2) 0.
#End of TTdata_428005-ICSD