
#(C) 2019 by FIZ Karlsruhe - Leibniz Institute for Information Infrastructure.  All rights reserved.
data_428169-ICSD
_database_code_ICSD 428169
_audit_creation_date 2015-02-01
_chemical_name_systematic 'Disodium nonabarium silicate'
_chemical_formula_structural 'Na2 Ba9 Si20 O50'
_chemical_formula_sum 'Ba9 Na2 O50 Si20'
_exptl_crystal_density_diffrn 3.6
_cell_measurement_temperature 298.
_publ_section_title

;
Synthesis and crystal structure of Na2 Ba9 Si20 O50 - an intermediate phase
along the join Na2 Si2 O5 - Ba Si2 O5
;
loop_
_citation_id
_citation_journal_full
_citation_year
_citation_journal_volume
_citation_page_first
_citation_page_last
_citation_journal_id_ASTM
primary 'Journal of the American Ceramic Society' 2013 96 318 322 JACTAW
loop_
_publ_author_name
'Mayr, Andreas'
'Kahlenberg, Volker'
_cell_length_a 39.111(3)
_cell_length_b 7.6566(6)
_cell_length_c 8.2055(6)
_cell_angle_alpha 90.
_cell_angle_beta 97.319(6)
_cell_angle_gamma 90.
_cell_volume 2437.17
_cell_formula_units_Z 2
_symmetry_space_group_name_H-M 'C 1 2/m 1'
_symmetry_Int_Tables_number 12
_refine_ls_R_factor_all 0.0352
loop_
_symmetry_equiv_pos_site_id
_symmetry_equiv_pos_as_xyz
1 '-x, y, -z'
2 '-x, -y, -z'
3 'x, -y, z'
4 'x, y, z'
5 '-x+1/2, y+1/2, -z'
6 '-x+1/2, -y+1/2, -z'
7 'x+1/2, -y+1/2, z'
8 'x+1/2, y+1/2, z'
loop_
_atom_type_symbol
_atom_type_oxidation_number
Ba2+ 2
Na1+ 1
Ba2+ 2
Na1+ 1
Si4+ 4
O2- -2
loop_
_atom_site_label
_atom_site_type_symbol
_atom_site_symmetry_multiplicity
_atom_site_Wyckoff_symbol
_atom_site_fract_x
_atom_site_fract_y
_atom_site_fract_z
_atom_site_B_iso_or_equiv
_atom_site_occupancy
_atom_site_attached_hydrogens
Ba1 Ba2+ 4 i 0.185722(12) 0.5 0.19997(6) 0.01464(14) 1 0
Ba2 Ba2+ 4 i 0.120758(12) 0. 0.13652(6) 0.01343(14) 1 0
Ba3 Ba2+ 4 i 0.089329(12) 0.5 0.83043(6) 0.01582(14) 1 0
Ba4 Ba2+ 4 i 0.284092(12) 0.5 0.51897(7) 0.02052(15) 1 0
Ba5 Ba2+ 4 i 0.03063(3) 0. 0.78120(12) 0.0227(4) 0.454(4) 0
Na1 Na1+ 4 i 0.03063(3) 0. 0.78120(12) 0.0227(4) 0.546(4) 0
Ba6 Ba2+ 2 d 0. 0.5 0.5 0.043(2) 0.075(6) 0
Na2 Na1+ 2 d 0. 0.5 0.5 0.043(2) 0.925(6) 0
Si1 Si4+ 8 j 0.23636(4) 0.7059(2) 0.8176(2) 0.0165(3) 1 0
Si2 Si4+ 8 j 0.03651(4) 0.7051(2) 0.0881(2) 0.0182(4) 1 0
Si3 Si4+ 8 j 0.13223(4) 0.70230(19) 0.46040(18) 0.0112(3) 1 0
Si4 Si4+ 8 j 0.05672(4) 0.7990(2) 0.44494(19) 0.0143(3) 1 0
Si5 Si4+ 8 j 0.15870(4) 0.79629(19) 0.81485(18) 0.0111(3) 1 0
O1 O2- 8 j 0.06746(10) 0.7959(6) 0.0158(5) 0.0231(9) 1 0
O2 O2- 8 j 0.16232(10) 0.7878(5) 0.3794(5) 0.0179(9) 1 0
O3 O2- 8 j 0.13625(10) 0.6976(5) 0.6604(5) 0.0178(9) 1 0
O4 O2- 4 i 0.14684(15) 0. 0.8032(8) 0.0226(13) 1 0
O5 O2- 8 j 0.19849(10) 0.7934(6) 0.7783(6) 0.0259(10) 1 0
O6 O2- 8 j 0.05076(12) 0.7061(8) 0.6069(6) 0.0413(14) 1 0
O7 O2- 8 j 0.09625(10) 0.8036(5) 0.4006(5) 0.0185(9) 1 0
O8 O2- 4 i 0.12714(15) 0.5 0.4009(7) 0.0177(12) 1 0
O9 O2- 4 i 0.03674(15) 0.5 0.0387(8) 0.0220(13) 1 0
O10 O2- 4 i 0.2321(2) 0.5 0.7966(16) 0.072(3) 1 0
O11 O2- 4 g 0. 0.7879(7) 0. 0.0273(15) 1 0
O12 O2- 8 j 0.03414(12) 0.7185(9) 0.2833(6) 0.0464(15) 1 0
O13 O2- 4 i 0.04434(17) 0. 0.4511(12) 0.044(2) 1 0
O14 O2- 8 j 0.26010(13) 0.7780(8) 0.6958(8) 0.0538(17) 1 0
O15 O2- 8 j 0.15025(11) 0.7134(5) 0.9805(5) 0.0210(9) 1 0
O16 O2- 8 j 0.2569(2) 0.7921(11) -0.0195(12) 0.026(2) 0.5 0
loop_
_atom_site_aniso_label
_atom_site_aniso_type_symbol
_atom_site_aniso_U_11
_atom_site_aniso_U_22
_atom_site_aniso_U_33
_atom_site_aniso_U_12
_atom_site_aniso_U_13
_atom_site_aniso_U_23
Ba1 Ba2+ 0.0149(2) 0.0163(3) 0.0130(3) 0. 0.00272(18) 0.
Ba2 Ba2+ 0.0145(2) 0.0124(2) 0.0136(3) 0. 0.00269(18) 0.
Ba3 Ba2+ 0.0170(3) 0.0148(2) 0.0166(3) 0. 0.00591(19) 0.
Ba4 Ba2+ 0.0137(3) 0.0136(3) 0.0337(3) 0. 0.0009(2) 0.
Ba5 Ba2+ 0.0329(7) 0.0161(6) 0.0211(6) 0. 0.0103(4) 0.
Na1 Na1+ 0.0329(7) 0.0161(6) 0.0211(6) 0. 0.0103(4) 0.
Ba6 Ba2+ 0.038(3) 0.031(3) 0.064(4) 0. 0.026(2) 0.
Na2 Na1+ 0.038(3) 0.031(3) 0.064(4) 0. 0.026(2) 0.
Si1 Si4+ 0.0150(7) 0.0192(8) 0.0146(8) 0.0024(6) -0.0003(6) -0.0051(6)
Si2 Si4+ 0.0142(7) 0.0174(8) 0.0231(9) -0.0018(6) 0.0031(6) -0.0072(7)
Si3 Si4+ 0.0124(7) 0.0107(7) 0.0107(8) -0.0003(6) 0.0025(6) 0.0000(6)
Si4 Si4+ 0.0146(7) 0.0133(7) 0.0154(8) 0.0004(6) 0.0031(6) 0.0020(6)
Si5 Si4+ 0.0120(7) 0.0109(7) 0.0104(8) 0.0009(6) 0.0019(6) -0.0008(6)
O1 O2- 0.020(2) 0.024(2) 0.026(2) -0.0034(18) 0.0046(17) -0.0016(19)
O2 O2- 0.0188(19) 0.020(2) 0.015(2) -0.0045(17) 0.0039(16) -0.0009(17)
O3 O2- 0.023(2) 0.019(2) 0.011(2) -0.0061(18) 0.0030(16) -0.0037(16)
O4 O2- 0.023(3) 0.017(3) 0.028(4) 0. 0.002(3) 0.
O5 O2- 0.015(2) 0.031(3) 0.032(3) 0.0030(19) 0.0027(18) -0.003(2)
O6 O2- 0.026(2) 0.064(4) 0.036(3) 0.012(2) 0.012(2) 0.033(3)
O7 O2- 0.017(2) 0.019(2) 0.020(2) 0.0027(17) 0.0036(16) 0.0052(17)
O8 O2- 0.030(3) 0.011(3) 0.012(3) 0. 0.001(2) 0.
O9 O2- 0.021(3) 0.018(3) 0.027(4) 0. 0.004(3) 0.
O10 O2- 0.047(5) 0.016(4) 0.153(11) 0. 0.018(6) 0.
O11 O2- 0.018(3) 0.008(3) 0.054(4) 0. -0.001(3) 0.
O12 O2- 0.027(2) 0.086(4) 0.029(3) -0.022(3) 0.013(2) -0.026(3)
O13 O2- 0.020(3) 0.013(3) 0.105(7) 0. 0.028(4) 0.
O14 O2- 0.032(3) 0.051(3) 0.087(5) 0.014(3) 0.039(3) 0.025(3)
O15 O2- 0.028(2) 0.023(2) 0.012(2) 0.0012(19) 0.0016(17) 0.0029(17)
#End of TTdata_428169-ICSD