
#(C) 2019 by FIZ Karlsruhe - Leibniz Institute for Information Infrastructure.  All rights reserved.
data_428491-ICSD
_database_code_ICSD 428491
_audit_creation_date 2016-08-01
_chemical_name_systematic 'Sodium neodymium oxo fluoro orthosilicate'
_chemical_formula_structural 'Na4.74 Nd4.26 (O0.52 F0.48) (Si O4)4'
_chemical_formula_sum 'F0.48 Na4.74 Nd4.26 O16.52 Si4'
_chemical_name_structure_type (NaYSiO4)4NaF
_exptl_crystal_density_diffrn 4.58
_cell_measurement_temperature 296.
_publ_section_title

;
Crystal growth and structure of three new neodymium containing silicates:
Na0.50 Nd4.50 (Si O4)3 O, Na0.63 Nd4.37 (Si O4)3 O0.74 F0.26 and Na4.74 Nd4.26
(O0.52 F0.48) [Si O4]4
;
loop_
_citation_id
_citation_journal_full
_citation_year
_citation_journal_volume
_citation_page_first
_citation_page_last
_citation_journal_id_ASTM
primary 'Solid State Sciences' 2014 35 28 32 SSSCFJ
loop_
_publ_author_name
'Latshaw, Allison M.'
'Smith, Mark D.'
'zur Loye, Hans-Conrad'
_cell_length_a 12.1255(3)
_cell_length_b 12.1255(3)
_cell_length_c 5.4656(2)
_cell_angle_alpha 90
_cell_angle_beta 90
_cell_angle_gamma 90
_cell_volume 803.59
_cell_formula_units_Z 2
_symmetry_space_group_name_H-M 'I -4'
_symmetry_Int_Tables_number 82
_refine_ls_R_factor_all 0.025
loop_
_symmetry_equiv_pos_site_id
_symmetry_equiv_pos_as_xyz
1 '-y, x, -z'
2 'y, -x, -z'
3 '-x, -y, z'
4 'x, y, z'
5 '-y+1/2, x+1/2, -z+1/2'
6 'y+1/2, -x+1/2, -z+1/2'
7 '-x+1/2, -y+1/2, z+1/2'
8 'x+1/2, y+1/2, z+1/2'
loop_
_atom_type_symbol
_atom_type_oxidation_number
Nd3+ 3
Si4+ 4
Na1+ 1
Nd3+ 3
Na1+ 1
Nd3+ 3
O2- -2
F1- -1
O2- -2
loop_
_atom_site_label
_atom_site_type_symbol
_atom_site_symmetry_multiplicity
_atom_site_Wyckoff_symbol
_atom_site_fract_x
_atom_site_fract_y
_atom_site_fract_z
_atom_site_B_iso_or_equiv
_atom_site_occupancy
_atom_site_attached_hydrogens
Nd1 Nd3+ 8 g 0.11709(2) 0.18460(2) 0.48306(5) 0.01173(8) 1 0
Si1 Si4+ 8 g 0.24661(11) 0.10306(12) 0.0077(3) 0.0125(2) 1 0
Na1 Na1+ 8 g 0.10259(14) 0.40804(14) 0.0010(4) 0.0177(6) 0.952(2) 0
Nd2 Nd3+ 8 g 0.10259(14) 0.40804(14) 0.0010(4) 0.0177(6) 0.048(2) 0
Na2 Na1+ 2 a 0. 0. 0. 0.0135(10) 0.931(4) 0
Nd3 Nd3+ 2 a 0. 0. 0. 0.0135(10) 0.069(4) 0
O1 O2- 2 b 0. 0. 0.5 0.0147(13) 0.52 0
F1 F1- 2 b 0. 0. 0.5 0.0147(13) 0.48 0
O2 O2- 8 g 0.2061(4) 0.0354(4) 0.2488(8) 0.0162(8) 1 0
O3 O2- 8 g 0.1118(3) 0.6193(3) 0.0070(9) 0.0191(8) 1 0
O4 O2- 8 g 0.2013(3) 0.2287(3) 0.0485(8) 0.0163(7) 1 0
O5 O2- 8 g 0.3042(4) 0.4509(4) 0.2605(8) 0.0163(8) 1 0
loop_
_atom_site_aniso_label
_atom_site_aniso_type_symbol
_atom_site_aniso_U_11
_atom_site_aniso_U_22
_atom_site_aniso_U_33
_atom_site_aniso_U_12
_atom_site_aniso_U_13
_atom_site_aniso_U_23
Nd1 Nd3+ 0.01117(12) 0.01176(12) 0.01225(10) 0.00027(9) 0.00044(9) 0.00004(10)
Si1 Si4+ 0.0132(6) 0.0132(6) 0.0111(6) -0.0010(5) -0.0003(6) -0.0004(6)
Na1 Na1+ 0.0183(9) 0.0155(9) 0.0193(9) 0.0006(6) 0.0018(7) 0.0010(8)
Nd2 Nd3+ 0.0183(9) 0.0155(9) 0.0193(9) 0.0006(6) 0.0018(7) 0.0010(8)
Na2 Na1+ 0.0131(11) 0.0131(11) 0.0144(15) 0. 0. 0.
Nd3 Nd3+ 0.0131(11) 0.0131(11) 0.0144(15) 0. 0. 0.
O1 O2- 0.0127(17) 0.0127(17) 0.019(3) 0. 0. 0.
F1 F1- 0.0127(17) 0.0127(17) 0.019(3) 0. 0. 0.
O2 O2- 0.020(2) 0.015(2) 0.0127(16) -0.0009(17) 0.0033(15) 0.0021(15)
O3 O2- 0.0211(18) 0.0134(16) 0.023(2) 0.0007(13) -0.003(2) -0.0007(18)
O4 O2- 0.0176(17) 0.0117(16) 0.0197(18) -0.0013(13) 0.0022(15) -0.0011(15)
O5 O2- 0.024(2) 0.013(2) 0.0123(16) -0.0012(18) 0.0010(15) 0.0006(15)
#End of TTdata_428491-ICSD