
#(C) 2019 by FIZ Karlsruhe - Leibniz Institute for Information Infrastructure.  All rights reserved.
data_428482-ICSD
_database_code_ICSD 428482
_audit_creation_date 2015-08-01
_chemical_name_systematic
'Sodium gadolinium tetraoxosilicate oxide fluoride (0.82/4.18/3/0.36/0.64)'
_chemical_formula_structural '(Na0.82 Gd4.18) (Si O4)3 (O0.36 F0.64)'
_chemical_formula_sum 'F0.64 Gd4.18 Na0.82 O12.36 Si3'
_chemical_name_structure_type Apatite#-(HE,P63/m)
_exptl_crystal_density_diffrn 6.08
_cell_measurement_temperature 296.
_publ_section_title

;
Photoluminescent and magnetic properties of lanthanide containing apatites:
Nax Ln10-x (Si O4)6 O2-y Fy, Cax Ln10-x (Si O4)6 O2-y Fy (Ln = Eu, Gd, and
Sm), Gd9.34 (Si O4)6 O2, and K1.32 Pr8.68 (Si O4)6 O1.36 F0.64
;
loop_
_citation_id
_citation_journal_full
_citation_year
_citation_journal_volume
_citation_page_first
_citation_page_last
_citation_journal_id_ASTM
primary 'Inorganic Chemistry' 2015 54 876 884 INOCAJ
loop_
_publ_author_name
'Latshaw, Allison M.'
'Hughey, Kendall D.'
'Smith, Mark D.'
'Yeon, Jeongho'
'zur Loye, Hans-Conrad'
_cell_length_a 9.4257(2)
_cell_length_b 9.4257(2)
_cell_length_c 6.8850(2)
_cell_angle_alpha 90.
_cell_angle_beta 90.
_cell_angle_gamma 120.
_cell_volume 529.74
_cell_formula_units_Z 2
_symmetry_space_group_name_H-M 'P 63/m'
_symmetry_Int_Tables_number 176
_refine_ls_R_factor_all 0.0247
loop_
_symmetry_equiv_pos_site_id
_symmetry_equiv_pos_as_xyz
1 '-x+y, -x, -z+1/2'
2 '-y, x-y, -z+1/2'
3 'x, y, -z+1/2'
4 'x-y, x, -z'
5 'y, -x+y, -z'
6 '-x, -y, -z'
7 'x-y, x, z+1/2'
8 'y, -x+y, z+1/2'
9 '-x, -y, z+1/2'
10 '-x+y, -x, z'
11 '-y, x-y, z'
12 'x, y, z'
loop_
_atom_type_symbol
_atom_type_oxidation_number
Gd3+ 3
Na1+ 1
Gd3+ 3
Na1+ 1
Si4+ 4
O2- -2
F1- -1
loop_
_atom_site_label
_atom_site_type_symbol
_atom_site_symmetry_multiplicity
_atom_site_Wyckoff_symbol
_atom_site_fract_x
_atom_site_fract_y
_atom_site_fract_z
_atom_site_B_iso_or_equiv
_atom_site_occupancy
_atom_site_attached_hydrogens
Gd1 Gd3+ 4 f 0.3333 0.6667 -0.00007(7) 0.01356(14) 0.729(6) 0
Na1 Na1+ 4 f 0.3333 0.6667 -0.00007(7) 0.01356(14) 0.271(6) 0
Gd2 Gd3+ 6 h 0.24301(3) 0.00813(3) 0.25 0.01083(11) 0.906(7) 0
Na2 Na1+ 6 h 0.24301(3) 0.00813(3) 0.25 0.01083(11) 0.094(7) 0
Si1 Si4+ 6 h 0.37115(18) 0.39914(18) 0.25 0.0102(4) 1 0
O1 O2- 6 h 0.1240(5) 0.5262(5) 0.25 0.0190(9) 1 0
O2 O2- 6 h 0.4861(6) 0.3180(6) 0.25 0.0205(9) 1 0
O3 O2- 12 i 0.2498(4) 0.3401(5) 0.0628(5) 0.0283(9) 1 0
O4 O2- 2 a 0. 0. 0.25 0.0301(18) 0.36 0
F1 F1- 2 a 0. 0. 0.25 0.0301(18) 0.64 0
loop_
_atom_site_aniso_label
_atom_site_aniso_type_symbol
_atom_site_aniso_U_11
_atom_site_aniso_U_22
_atom_site_aniso_U_33
_atom_site_aniso_U_12
_atom_site_aniso_U_13
_atom_site_aniso_U_23
Gd1 Gd3+ 0.01298(16) 0.01298(16) 0.0147(2) 0.00649(8) 0. 0.
Na1 Na1+ 0.01298(16) 0.01298(16) 0.0147(2) 0.00649(8) 0. 0.
Gd2 Gd3+ 0.01122(15) 0.00970(14) 0.01030(14) 0.00428(10) 0. 0.
Na2 Na1+ 0.01122(15) 0.00970(14) 0.01030(14) 0.00428(10) 0. 0.
Si1 Si4+ 0.0104(6) 0.0106(6) 0.0101(6) 0.0057(5) 0. 0.
O1 O2- 0.019(2) 0.0152(19) 0.024(2) 0.0098(16) 0. 0.
O2 O2- 0.022(2) 0.033(2) 0.018(2) 0.022(2) 0. 0.
O3 O2- 0.0198(15) 0.051(2) 0.0183(15) 0.0213(16) -0.0069(12) -0.0167(15)
O4 O2- 0.018(2) 0.018(2) 0.054(6) 0.0091(10) 0. 0.
F1 F1- 0.018(2) 0.018(2) 0.054(6) 0.0091(10) 0. 0.
#End of TTdata_428482-ICSD