
#(C) 2019 by FIZ Karlsruhe - Leibniz Institute for Information Infrastructure.  All rights reserved.
data_428490-ICSD
_database_code_ICSD 428490
_audit_creation_date 2016-08-01
_chemical_name_systematic 'Sodium neodymium oxo fluoro orthosilicate'
_chemical_formula_structural 'Na0.63 Nd4.37 (O0.74 F0.26) (Si O4)3'
_chemical_formula_sum 'F0.26 Na0.63 Nd4.37 O12.74 Si3'
_chemical_name_structure_type Apatite#-(HE,P63/m)
_exptl_crystal_density_diffrn 5.59
_cell_measurement_temperature 296.
_publ_section_title

;
Crystal growth and structure of three new neodymium containing silicates:
Na0.50 Nd4.50 (Si O4)3 O, Na0.63 Nd4.37 (Si O4)3 O0.74 F0.26 and Na4.74 Nd4.26
(O0.52 F0.48) [Si O4]4
;
loop_
_citation_id
_citation_journal_full
_citation_year
_citation_journal_volume
_citation_page_first
_citation_page_last
_citation_journal_id_ASTM
primary 'Solid State Sciences' 2014 35 28 32 SSSCFJ
loop_
_publ_author_name
'Latshaw, Allison M.'
'Smith, Mark D.'
'zur Loye, Hans-Conrad'
_cell_length_a 9.5533(3)
_cell_length_b 9.5533(3)
_cell_length_c 7.0510(4)
_cell_angle_alpha 90
_cell_angle_beta 90
_cell_angle_gamma 120
_cell_volume 557.29
_cell_formula_units_Z 2
_symmetry_space_group_name_H-M 'P 63/m'
_symmetry_Int_Tables_number 176
_refine_ls_R_factor_all 0.0275
loop_
_symmetry_equiv_pos_site_id
_symmetry_equiv_pos_as_xyz
1 '-x+y, -x, -z+1/2'
2 '-y, x-y, -z+1/2'
3 'x, y, -z+1/2'
4 'x-y, x, -z'
5 'y, -x+y, -z'
6 '-x, -y, -z'
7 'x-y, x, z+1/2'
8 'y, -x+y, z+1/2'
9 '-x, -y, z+1/2'
10 '-x+y, -x, z'
11 '-y, x-y, z'
12 'x, y, z'
loop_
_atom_type_symbol
_atom_type_oxidation_number
Nd3+ 3
Na1+ 1
Nd3+ 3
Na1+ 1
Si4+ 4
O2- -2
F1- -1
loop_
_atom_site_label
_atom_site_type_symbol
_atom_site_symmetry_multiplicity
_atom_site_Wyckoff_symbol
_atom_site_fract_x
_atom_site_fract_y
_atom_site_fract_z
_atom_site_B_iso_or_equiv
_atom_site_occupancy
_atom_site_attached_hydrogens
Nd1 Nd3+ 4 f 0.3333 0.6667 0.00079(7) 0.01589(14) 0.780(6) 0
Na1 Na1+ 4 f 0.3333 0.6667 0.00079(7) 0.01589(14) 0.220(6) 0
Nd2 Nd3+ 6 h 0.24222(4) 0.01090(4) 0.25 0.01316(10) 0.937(7) 0
Na2 Na1+ 6 h 0.24222(4) 0.01090(4) 0.25 0.01316(10) 0.063(7) 0
Si1 Si4+ 6 h 0.37198(18) 0.40101(18) 0.25 0.0132(4) 1 0
O1 O2- 6 h 0.1255(5) 0.5272(5) 0.25 0.0194(9) 1 0
O2 O2- 6 h 0.4870(6) 0.3207(6) 0.25 0.0225(9) 1 0
O3 O2- 12 i 0.2528(4) 0.3435(5) 0.0659(5) 0.0294(8) 1 0
O4 O2- 2 a 0. 0. 0.25 0.0335(19) 0.74 0
F1 F1- 2 a 0. 0. 0.25 0.0335(19) 0.26 0
loop_
_atom_site_aniso_label
_atom_site_aniso_type_symbol
_atom_site_aniso_U_11
_atom_site_aniso_U_22
_atom_site_aniso_U_33
_atom_site_aniso_U_12
_atom_site_aniso_U_13
_atom_site_aniso_U_23
Nd1 Nd3+ 0.01533(17) 0.01533(17) 0.0170(2) 0.00766(8) 0. 0.
Na1 Na1+ 0.01533(17) 0.01533(17) 0.0170(2) 0.00766(8) 0. 0.
Nd2 Nd3+ 0.01253(15) 0.01269(15) 0.01321(14) 0.00553(11) 0. 0.
Na2 Na1+ 0.01253(15) 0.01269(15) 0.01321(14) 0.00553(11) 0. 0.
Si1 Si4+ 0.0134(7) 0.0139(7) 0.0140(6) 0.0081(6) 0. 0.
O1 O2- 0.0163(19) 0.0163(19) 0.026(2) 0.0084(16) 0. 0.
O2 O2- 0.025(2) 0.028(2) 0.0222(19) 0.0185(19) 0. 0.
O3 O2- 0.0220(16) 0.048(2) 0.0223(16) 0.0203(15) -0.0054(12) -0.0133(15)
O4 O2- 0.023(2) 0.023(2) 0.054(6) 0.0117(12) 0. 0.
F1 F1- 0.023(2) 0.023(2) 0.054(6) 0.0117(12) 0. 0.
#End of TTdata_428490-ICSD