
#(C) 2019 by FIZ Karlsruhe - Leibniz Institute for Information Infrastructure.  All rights reserved.
data_428484-ICSD
_database_code_ICSD 428484
_audit_creation_date 2015-08-01
_chemical_name_systematic
'Sodium europium tetraoxosilicate oxide fluoride (0.75/4.25/3/0.5/0.5)'
_chemical_formula_structural '(Na0.75 Eu4.25) (Si O4)3 (O0.5 F0.5)'
_chemical_formula_sum 'Eu4.25 F0.5 Na0.75 O12.5 Si3'
_chemical_name_structure_type Apatite#-(HE,P63/m)
_exptl_crystal_density_diffrn 5.94
_cell_measurement_temperature 296.
_publ_section_title

;
Photoluminescent and magnetic properties of lanthanide containing apatites:
Nax Ln10-x (Si O4)6 O2-y Fy, Cax Ln10-x (Si O4)6 O2-y Fy (Ln = Eu, Gd, and
Sm), Gd9.34 (Si O4)6 O2, and K1.32 Pr8.68 (Si O4)6 O1.36 F0.64
;
loop_
_citation_id
_citation_journal_full
_citation_year
_citation_journal_volume
_citation_page_first
_citation_page_last
_citation_journal_id_ASTM
primary 'Inorganic Chemistry' 2015 54 876 884 INOCAJ
loop_
_publ_author_name
'Latshaw, Allison M.'
'Hughey, Kendall D.'
'Smith, Mark D.'
'Yeon, Jeongho'
'zur Loye, Hans-Conrad'
_cell_length_a 9.4492(4)
_cell_length_b 9.4492(4)
_cell_length_c 6.9155(7)
_cell_angle_alpha 90.
_cell_angle_beta 90.
_cell_angle_gamma 120.
_cell_volume 534.74
_cell_formula_units_Z 2
_symmetry_space_group_name_H-M 'P 63/m'
_symmetry_Int_Tables_number 176
_refine_ls_R_factor_all 0.0181
loop_
_symmetry_equiv_pos_site_id
_symmetry_equiv_pos_as_xyz
1 '-x+y, -x, -z+1/2'
2 '-y, x-y, -z+1/2'
3 'x, y, -z+1/2'
4 'x-y, x, -z'
5 'y, -x+y, -z'
6 '-x, -y, -z'
7 'x-y, x, z+1/2'
8 'y, -x+y, z+1/2'
9 '-x, -y, z+1/2'
10 '-x+y, -x, z'
11 '-y, x-y, z'
12 'x, y, z'
loop_
_atom_type_symbol
_atom_type_oxidation_number
Eu3+ 3
Na1+ 1
Eu3+ 3
Na1+ 1
Si4+ 4
F1- -1
O2- -2
loop_
_atom_site_label
_atom_site_type_symbol
_atom_site_symmetry_multiplicity
_atom_site_Wyckoff_symbol
_atom_site_fract_x
_atom_site_fract_y
_atom_site_fract_z
_atom_site_B_iso_or_equiv
_atom_site_occupancy
_atom_site_attached_hydrogens
Eu1 Eu3+ 4 f 0.6667 0.3333 0.00006(9) 0.0123(2) 0.6808(17) 0
Na1 Na1+ 4 f 0.6667 0.3333 0.00006(9) 0.0123(2) 0.32 0
Eu2 Eu3+ 6 h 0.76511(4) 0.75583(4) 0.25 0.00994(14) 0.9630(11) 0
Na2 Na1+ 6 h 0.76511(4) 0.75583(4) 0.25 0.00994(14) 0.04 0
Si1 Si4+ 6 h 0.6295(2) 0.6019(2) 0.75 0.0093(3) 1 0
F1 F1- 2 a 1. 1. 0.25 0.026(2) 0.5 0
O1 O2- 2 a 1. 1. 0.25 0.026(2) 0.5 0
O2 O2- 6 h 0.5147(6) 0.6823(7) 0.75 0.0186(10) 1 0
O3 O2- 6 h 0.5269(6) 0.4040(6) 0.75 0.0163(10) 1 0
O4 O2- 12 i 0.7509(4) 0.6620(5) 0.9349(6) 0.0248(9) 1 0
loop_
_atom_site_aniso_label
_atom_site_aniso_type_symbol
_atom_site_aniso_U_11
_atom_site_aniso_U_22
_atom_site_aniso_U_33
_atom_site_aniso_U_12
_atom_site_aniso_U_13
_atom_site_aniso_U_23
Eu1 Eu3+ 0.0117(2) 0.0117(2) 0.0135(3) 0.00585(11) 0. 0.
Na1 Na1+ 0.0117(2) 0.0117(2) 0.0135(3) 0.00585(11) 0. 0.
Eu2 Eu3+ 0.0120(2) 0.01130(19) 0.00825(19) 0.00710(14) 0. 0.
Na2 Na1+ 0.0120(2) 0.01130(19) 0.00825(19) 0.00710(14) 0. 0.
Si1 Si4+ 0.0099(8) 0.0112(8) 0.0079(8) 0.0061(7) 0. 0.
F1 F1- 0.016(2) 0.016(2) 0.048(6) 0.0078(11) 0. 0.
O1 O2- 0.016(2) 0.016(2) 0.048(6) 0.0078(11) 0. 0.
O2 O2- 0.023(3) 0.027(3) 0.013(2) 0.018(2) 0. 0.
O3 O2- 0.013(2) 0.010(2) 0.023(3) 0.0036(19) 0. 0.
O4 O2- 0.0187(17) 0.047(2) 0.0137(17) 0.0204(17) -0.0064(15) -0.0151(18)
#End of TTdata_428484-ICSD