
#(C) 2019 by FIZ Karlsruhe - Leibniz Institute for Information Infrastructure.  All rights reserved.
data_428558-ICSD
_database_code_ICSD 428558
_audit_creation_date 2016-08-01
_chemical_name_systematic 'Potassium magnesium trisodium tris(molybdate)'
_chemical_formula_structural 'K Mg Na3 (Mo O4)3'
_chemical_formula_sum 'K1 Mg1 Mo3 Na3 O12'
_chemical_name_structure_type Alluaudite
_exptl_crystal_density_diffrn 3.5
_cell_measurement_temperature 293.
_publ_section_title

;
Synthesis, crystal structure, sintering and electrical properties of a new
alluaudite-like triple molybdate K0.13 Na3.87 Mg Mo3 O12
;
loop_
_citation_id
_citation_journal_full
_citation_year
_citation_journal_volume
_citation_page_first
_citation_page_last
_citation_journal_id_ASTM
primary 'RSC Advances' 2015 5 38918 38925 RSCACL
loop_
_publ_author_name
'Ennajeh, Ines'
'Georges, Samuel'
'Smida, Youssef Ben'
'Guesmi, Abderrahmen'
'Zid, Mohamed Faouzi'
'Boughazala, Habib'
_cell_length_a 12.9325(8)
_cell_length_b 13.5537(9)
_cell_length_c 7.1627(4)
_cell_angle_alpha 90
_cell_angle_beta 112.212(3)
_cell_angle_gamma 90
_cell_volume 1162.33
_cell_formula_units_Z 4
_symmetry_space_group_name_H-M 'C 1 2/c 1'
_symmetry_Int_Tables_number 15
_refine_ls_R_factor_all 0.0391
loop_
_symmetry_equiv_pos_site_id
_symmetry_equiv_pos_as_xyz
1 'x, -y, z+1/2'
2 '-x, -y, -z'
3 '-x, y, -z+1/2'
4 'x, y, z'
5 'x+1/2, -y+1/2, z+1/2'
6 '-x+1/2, -y+1/2, -z'
7 '-x+1/2, y+1/2, -z+1/2'
8 'x+1/2, y+1/2, z'
loop_
_atom_type_symbol
_atom_type_oxidation_number
Mo6+ 6
Mg2+ 2
Na1+ 1
K1+ 1
O2- -2
loop_
_atom_site_label
_atom_site_type_symbol
_atom_site_symmetry_multiplicity
_atom_site_Wyckoff_symbol
_atom_site_fract_x
_atom_site_fract_y
_atom_site_fract_z
_atom_site_B_iso_or_equiv
_atom_site_occupancy
_atom_site_attached_hydrogens
Mo1 Mo6+ 4 e 0 0.21606(5) 0.75 0.0193(2) 1 0
Mo2 Mo6+ 8 f 0.23697(4) 0.60962(4) 0.12689(7) 0.0209(2) 1 0
Mg1 Mg2+ 8 f 0.21621(17) 0.34016(16) 0.1267(3) 0.0169(4) 0.5 0
Na1 Na1+ 8 f 0.21621(17) 0.34016(16) 0.1267(3) 0.0169(4) 0.5 0
Na2 Na1+ 4 e 0 0.2367(3) 0.25 0.0257(7) 1 0
Na3 Na1+ 4 a 0.5 0.5 0.5 0.0410(11) 1 0
K1 K1+ 4 e 0 0.4919(4) 0.75 0.0779(11) 1 0
O1 O2- 8 f 0.6715(6) 0.0058(4) 0.6104(9) 0.0443(14) 1 0
O2 O2- 8 f 0.3944(5) 0.3652(4) 1.2538(8) 0.0392(12) 1 0
O3 O2- 8 f 0.3788(4) 0.5895(4) 0.1836(8) 0.0320(10) 1 0
O4 O2- 8 f 0.4565(4) 0.7899(3) 0.5299(7) 0.0280(10) 1 0
O5 O2- 8 f 0.3270(4) 0.8306(4) 0.1082(7) 0.0321(10) 1 0
O6 O2- 8 f 0.2769(4) 0.8206(4) 0.6736(7) 0.0347(11) 1 0
loop_
_atom_site_aniso_label
_atom_site_aniso_type_symbol
_atom_site_aniso_U_11
_atom_site_aniso_U_22
_atom_site_aniso_U_33
_atom_site_aniso_U_12
_atom_site_aniso_U_13
_atom_site_aniso_U_23
Mo1 Mo6+ 0.0254(4) 0.0167(4) 0.0118(4) 0 0.0025(3) 0
Mo2 Mo6+ 0.0241(3) 0.0230(3) 0.0134(3) -0.00308(18) 0.0046(2) 0.00001(16)
Mg1 Mg2+ 0.0184(9) 0.0196(9) 0.0125(9) 0.0023(8) 0.0055(7) -0.0004(7)
Na1 Na1+ 0.0184(9) 0.0196(9) 0.0125(9) 0.0023(8) 0.0055(7) -0.0004(7)
Na2 Na1+ 0.0251(16) 0.0291(17) 0.0267(18) 0 0.0142(14) 0
Na3 Na1+ 0.059(3) 0.0227(17) 0.026(2) 0.0022(18) -0.0004(19) -0.0026(15)
K1 K1+ 0.0442(16) 0.099(3) 0.077(3) 0 0.0077(16) 0
O1 O2- 0.055(3) 0.041(3) 0.034(3) 0.019(3) 0.013(3) -0.004(2)
O2 O2- 0.048(3) 0.029(2) 0.033(3) 0.008(2) 0.006(2) -0.010(2)
O3 O2- 0.029(2) 0.029(2) 0.035(3) 0.006(2) 0.009(2) 0.010(2)
O4 O2- 0.033(2) 0.033(2) 0.018(2) -0.0008(19) 0.0088(18) 0.0032(18)
O5 O2- 0.039(2) 0.031(2) 0.019(2) 0.010(2) 0.0034(19) 0.0024(19)
O6 O2- 0.037(3) 0.046(3) 0.021(2) 0.002(2) 0.010(2) -0.001(2)
#End of TTdata_428558-ICSD