
#(C) 2019 by FIZ Karlsruhe - Leibniz Institute for Information Infrastructure.  All rights reserved.
data_428747-ICSD
_database_code_ICSD 428747
_audit_creation_date 2015-08-01
_chemical_name_systematic 'Disodium heptaoxodiselenate'
_chemical_formula_structural 'Na2 (Se2 O7)'
_chemical_formula_sum 'Na2 O7 Se2'
_chemical_name_structure_type Ca2V2O7
_exptl_crystal_density_diffrn 3.39
_cell_measurement_temperature 293.
_publ_section_title

;
Synthesis, crystal structure, and vibrational spectroscopy of the alkali
diselenates A2 Se2 O7 (A = Li - Cs)
;
loop_
_citation_id
_citation_journal_full
_citation_year
_citation_journal_volume
_citation_page_first
_citation_page_last
_citation_journal_id_ASTM
primary 'Zeitschrift fuer Anorganische und Allgemeine Chemie' 2015 641 1293 1300
ZAACAB
loop_
_publ_author_name
'Daub, Michael'
'Hillebrecht, Harald'
_cell_length_a 6.9896(14)
_cell_length_b 6.9938(14)
_cell_length_c 7.0829(14)
_cell_angle_alpha 83.32(3)
_cell_angle_beta 64.56(3)
_cell_angle_gamma 83.18(3)
_cell_volume 309.62
_cell_formula_units_Z 2
_symmetry_space_group_name_H-M 'P -1'
_symmetry_Int_Tables_number 2
_refine_ls_R_factor_all 0.0219
loop_
_symmetry_equiv_pos_site_id
_symmetry_equiv_pos_as_xyz
1 '-x, -y, -z'
2 'x, y, z'
loop_
_atom_type_symbol
_atom_type_oxidation_number
Na1+ 1
Se6+ 6
O2- -2
loop_
_atom_site_label
_atom_site_type_symbol
_atom_site_symmetry_multiplicity
_atom_site_Wyckoff_symbol
_atom_site_fract_x
_atom_site_fract_y
_atom_site_fract_z
_atom_site_B_iso_or_equiv
_atom_site_occupancy
_atom_site_attached_hydrogens
Na1 Na1+ 2 i -0.26626(14) 0.34812(13) 0.39387(15) 0.0198(2) 1 0
Na2 Na1+ 2 i 0.2754(2) 0.09162(17) 0.23564(17) 0.0345(3) 1 0
Se1 Se6+ 2 i 0.24211(3) 0.14368(3) 0.72725(3) 0.01286(9) 1 0
Se2 Se6+ 2 i -0.20001(3) 0.39009(3) 0.86620(3) 0.01344(9) 1 0
O1 O2- 2 i 0.3563(2) 0.0464(2) 0.8731(3) 0.0206(3) 1 0
O2 O2- 2 i 0.3612(3) 0.3149(3) 0.5589(3) 0.0245(4) 1 0
O3 O2- 2 i 0.1703(3) -0.0082(2) 0.6183(3) 0.0263(4) 1 0
O4 O2- 2 i -0.2480(3) 0.2604(2) 0.7210(3) 0.0208(3) 1 0
O5 O2- 2 i -0.1024(3) 0.5909(2) 0.7497(3) 0.0223(3) 1 0
O6 O2- 2 i -0.3694(3) 0.4008(3) 1.1059(2) 0.0264(4) 1 0
O7 O2- 2 i 0.0113(2) 0.2524(2) 0.9162(2) 0.0186(3) 1 0
loop_
_atom_site_aniso_label
_atom_site_aniso_type_symbol
_atom_site_aniso_U_11
_atom_site_aniso_U_22
_atom_site_aniso_U_33
_atom_site_aniso_U_12
_atom_site_aniso_U_13
_atom_site_aniso_U_23
Na1 Na1+ 0.0172(5) 0.0200(4) 0.0213(4) -0.0017(4) -0.0074(4) 0.0000(3)
Na2 Na1+ 0.0448(7) 0.0318(6) 0.0237(5) 0.0161(5) -0.0151(5) -0.0064(4)
Se1 Se6+ 0.01259(13) 0.01314(13) 0.01137(13) 0.00013(8) -0.00382(9) -0.00138(8)
Se2 Se6+ 0.01143(13) 0.01716(13) 0.01063(13) -0.00060(8) -0.00336(9) -0.00252(8)
O1 O2- 0.0165(7) 0.0259(8) 0.0192(8) 0.0018(6) -0.0092(6) 0.0018(6)
O2 O2- 0.0181(8) 0.0239(8) 0.0224(9) -0.0039(6) -0.0016(7) 0.0071(6)
O3 O2- 0.0398(11) 0.0179(8) 0.0291(9) 0.0010(7) -0.0207(9) -0.0104(7)
O4 O2- 0.0277(9) 0.0197(7) 0.0225(8) -0.0040(6) -0.0163(7) -0.0042(6)
O5 O2- 0.0213(8) 0.0166(7) 0.0287(9) -0.0044(6) -0.0099(7) 0.0000(6)
O6 O2- 0.0177(8) 0.0391(10) 0.0137(8) 0.0099(7) -0.0011(6) -0.0029(7)
O7 O2- 0.0139(7) 0.0280(8) 0.0127(7) 0.0056(6) -0.0053(6) -0.0059(6)
#End of TTdata_428747-ICSD