
#(C) 2019 by FIZ Karlsruhe - Leibniz Institute for Information Infrastructure.  All rights reserved.
data_429064-ICSD
_database_code_ICSD 429064
_audit_creation_date 2016-02-01
_chemical_name_systematic 'Trisodium sulfate fluoride'
_chemical_formula_structural 'Na3 (S O4) F'
_chemical_formula_sum 'F1 Na3 O4 S1'
_chemical_name_mineral Kogarkoite
_exptl_crystal_density_diffrn 2.68
_cell_measurement_temperature 293.
_publ_section_title

;
Order-disorder phase transition in the antiperovskite-type structure of
synthetic kogarkoite, Na3 S O4 F
;
loop_
_citation_id
_citation_journal_full
_citation_year
_citation_journal_volume
_citation_page_first
_citation_page_last
_citation_journal_id_ASTM
primary 'Journal of Solid State Chemistry' 2015 231 42 46 JSSCBI
loop_
_publ_author_name
'Avdontceva, Margarita S.'
'Zolotarev, Andrey A.'
'Krivovichev, Sergey V.'
_cell_length_a 18.064(3)
_cell_length_b 6.9578(12)
_cell_length_c 11.446(2)
_cell_angle_alpha 90.
_cell_angle_beta 107.711(4)
_cell_angle_gamma 90.
_cell_volume 1370.41
_cell_formula_units_Z 12
_symmetry_space_group_name_H-M 'P 1 21/m 1'
_symmetry_Int_Tables_number 11
_refine_ls_R_factor_all 0.0581
loop_
_symmetry_equiv_pos_site_id
_symmetry_equiv_pos_as_xyz
1 'x, -y+1/2, z'
2 '-x, -y, -z'
3 '-x, y+1/2, -z'
4 'x, y, z'
loop_
_atom_type_symbol
_atom_type_oxidation_number
Na1+ 1
S6+ 6
O2- -2
F1- -1
loop_
_atom_site_label
_atom_site_type_symbol
_atom_site_symmetry_multiplicity
_atom_site_Wyckoff_symbol
_atom_site_fract_x
_atom_site_fract_y
_atom_site_fract_z
_atom_site_B_iso_or_equiv
_atom_site_occupancy
_atom_site_attached_hydrogens
Na1 Na1+ 2 d 0.5 0. 0.5 0.0187(6) 1 0
Na2 Na1+ 2 e 0.35081(16) 0.25 0.3033(3) 0.0225(6) 1 0
Na3 Na1+ 2 e 0.11769(15) 0.25 0.8735(2) 0.0177(6) 1 0
Na4 Na1+ 2 e 0.61616(15) 0.25 0.3952(3) 0.0202(6) 1 0
Na5 Na1+ 2 e 0.85296(15) 0.25 0.8161(2) 0.0161(5) 1 0
Na6 Na1+ 2 e 0.39279(17) 0.25 0.9091(3) 0.0222(6) 1 0
Na7 Na1+ 2 a 0. 0. 0. 0.0182(6) 1 0
Na8 Na1+ 2 e 0.89276(15) 0.25 0.4372(2) 0.0159(5) 1 0
Na9 Na1+ 4 f 0.27906(10) 0.0265(3) 0.03167(17) 0.0170(4) 1 0
Na10 Na1+ 4 f 0.46566(11) 0.0180(3) 0.19125(17) 0.0193(4) 1 0
Na11 Na1+ 4 f 0.24526(10) 0.0009(3) 0.73489(16) 0.0194(4) 1 0
Na12 Na1+ 4 f 0.77440(11) 0.0218(3) 0.55094(16) 0.0181(4) 1 0
Na13 Na1+ 4 f 0.96997(10) 0.0229(3) 0.70733(16) 0.0169(4) 1 0
S1 S6+ 2 e 0.16171(8) 0.25 0.19332(12) 0.0093(3) 1 0
S2 S6+ 2 e 0.59645(9) 0.25 0.07976(14) 0.0131(3) 1 0
S3 S6+ 2 e 0.65433(9) 0.25 0.70102(13) 0.0104(3) 1 0
S4 S6+ 2 e 0.08557(9) 0.25 0.54474(13) 0.0107(3) 1 0
S5 S6+ 2 e 0.37501(8) 0.25 0.61391(13) 0.0104(3) 1 0
S6 S6+ 2 e 0.87029(8) 0.25 0.12016(12) 0.0087(3) 1 0
O1 O2- 4 f 0.11272(19) 0.0778(5) 0.1799(3) 0.0208(7) 1 0
O2 O2- 4 f 0.6457(2) 0.0769(5) 0.0927(3) 0.0240(8) 1 0
O3 O2- 4 f 0.6533(2) 0.0769(5) 0.7745(3) 0.0249(8) 1 0
O4 O2- 4 f 0.1337(2) 0.0769(5) 0.5536(3) 0.0208(7) 1 0
O5 O2- 2 e 0.2012(3) 0.25 0.0991(4) 0.0194(10) 1 0
O6 O2- 2 e 0.5597(3) 0.25 0.1782(4) 0.0232(11) 1 0
O7 O2- 2 e 0.7240(3) 0.25 0.6624(5) 0.0275(12) 1 0
O8 O2- 2 e 0.0483(3) 0.25 0.6415(4) 0.0218(11) 1 0
O9 O2- 2 e 0.2198(3) 0.25 0.3164(4) 0.0232(11) 1 0
O10 O2- 2 e 0.5365(3) 0.25 0.9602(5) 0.0284(12) 1 0
O11 O2- 2 e 0.5842(3) 0.25 0.5948(5) 0.0323(13) 1 0
O12 O2- 2 e 0.0246(3) 0.25 0.4234(4) 0.0242(11) 1 0
O13 O2- 4 f 0.9179(2) 0.0775(5) 0.1280(3) 0.0284(8) 1 0
O14 O2- 2 e 0.8082(3) 0.25 -0.0002(4) 0.0212(10) 1 0
O15 O2- 2 e 0.8340(3) 0.25 0.2189(5) 0.0273(12) 1 0
O16 O2- 4 f 0.3746(2) 0.0792(6) 0.5376(3) 0.0321(9) 1 0
O17 O2- 2 e 0.4424(4) 0.25 0.7213(6) 0.0469(17) 1 0
O18 O2- 2 e 0.3045(4) 0.25 0.6503(7) 0.0509(19) 1 0
F1 F1- 2 e 0.4806(2) 0.25 0.3576(3) 0.0196(8) 1 0
F2 F1- 2 e 0.3778(2) 0.25 0.0961(4) 0.0199(8) 1 0
F3 F1- 2 e 0.2394(2) 0.25 0.8644(3) 0.0186(8) 1 0
F4 F1- 2 e 0.9909(2) 0.25 0.8755(3) 0.0162(8) 1 0
F5 F1- 2 e 0.7438(2) 0.25 0.3933(3) 0.0182(8) 1 0
F6 F1- 2 e 0.8754(2) 0.25 0.6270(3) 0.0168(8) 1 0
loop_
_atom_site_aniso_label
_atom_site_aniso_type_symbol
_atom_site_aniso_U_11
_atom_site_aniso_U_22
_atom_site_aniso_U_33
_atom_site_aniso_U_12
_atom_site_aniso_U_13
_atom_site_aniso_U_23
Na1 Na1+ 0.0175(13) 0.0191(14) 0.0190(12) 0.0003(11) 0.0048(10) 0.0016(10)
Na2 Na1+ 0.0189(14) 0.0169(14) 0.0354(15) 0. 0.0139(12) 0.
Na3 Na1+ 0.0151(13) 0.0150(14) 0.0241(13) 0. 0.0076(11) 0.
Na4 Na1+ 0.0174(14) 0.0152(14) 0.0258(13) 0. 0.0032(11) 0.
Na5 Na1+ 0.0193(13) 0.0152(13) 0.0154(11) 0. 0.0078(10) 0.
Na6 Na1+ 0.0244(15) 0.0153(14) 0.0268(14) 0. 0.0076(12) 0.
Na7 Na1+ 0.0196(13) 0.0186(14) 0.0168(12) 0.0055(11) 0.0063(10) 0.0044(10)
Na8 Na1+ 0.0205(13) 0.0136(13) 0.0155(11) 0. 0.0083(10) 0.
Na9 Na1+ 0.0162(9) 0.0148(10) 0.0209(9) 0.0004(7) 0.0071(7) -0.0012(7)
Na10 Na1+ 0.0175(10) 0.0183(10) 0.0243(9) 0.0004(8) 0.0100(8) 0.0009(7)
Na11 Na1+ 0.0206(10) 0.0194(10) 0.0195(9) -0.0059(8) 0.0078(8) -0.0026(7)
Na12 Na1+ 0.0217(10) 0.0164(10) 0.0191(9) 0.0010(8) 0.0102(7) 0.0025(7)
Na13 Na1+ 0.0173(9) 0.0166(10) 0.0182(8) -0.0002(7) 0.0072(7) 0.0008(7)
S1 S6+ 0.0099(7) 0.0085(7) 0.0113(6) 0. 0.0061(5) 0.
S2 S6+ 0.0114(7) 0.0113(8) 0.0191(7) 0. 0.0084(6) 0.
S3 S6+ 0.0122(7) 0.0089(7) 0.0104(6) 0. 0.0038(5) 0.
S4 S6+ 0.0123(7) 0.0079(7) 0.0140(7) 0. 0.0072(6) 0.
S5 S6+ 0.0110(7) 0.0092(7) 0.0120(6) 0. 0.0047(5) 0.
S6 S6+ 0.0100(7) 0.0081(7) 0.0092(6) 0. 0.0044(5) 0.
O1 O2- 0.0227(18) 0.0122(17) 0.0304(17) -0.0067(14) 0.0125(14) -0.0020(14)
O2 O2- 0.0241(18) 0.0129(18) 0.038(2) 0.0067(14) 0.0136(16) 0.0010(15)
O3 O2- 0.0279(19) 0.0206(19) 0.0291(18) 0.0002(16) 0.0128(15) 0.0079(15)
O4 O2- 0.0262(18) 0.0101(17) 0.0314(18) 0.0056(14) 0.0169(15) 0.0009(14)
O5 O2- 0.025(3) 0.018(3) 0.021(2) 0. 0.015(2) 0.
O6 O2- 0.020(3) 0.028(3) 0.026(2) 0. 0.013(2) 0.
O7 O2- 0.030(3) 0.017(3) 0.047(3) 0. 0.029(3) 0.
O8 O2- 0.030(3) 0.021(3) 0.023(2) 0. 0.020(2) 0.
O9 O2- 0.022(3) 0.026(3) 0.018(2) 0. -0.0004(19) 0.
O10 O2- 0.024(3) 0.035(3) 0.023(2) 0. 0.002(2) 0.
O11 O2- 0.034(3) 0.028(3) 0.026(3) 0. -0.005(2) 0.
O12 O2- 0.022(3) 0.026(3) 0.021(2) 0. 0.000(2) 0.
O13 O2- 0.028(2) 0.022(2) 0.036(2) 0.0079(16) 0.0111(16) 0.0021(16)
O14 O2- 0.019(2) 0.024(3) 0.016(2) 0. -0.0012(18) 0.
O15 O2- 0.028(3) 0.029(3) 0.026(3) 0. 0.009(2) 0.
O16 O2- 0.044(2) 0.022(2) 0.035(2) -0.0002(18) 0.0176(18) -0.0059(16)
O17 O2- 0.038(4) 0.043(4) 0.043(4) 0. -0.013(3) 0.
O18 O2- 0.058(4) 0.031(4) 0.089(5) 0. 0.059(4) 0.
F1 F1- 0.021(2) 0.022(2) 0.0177(18) 0. 0.0087(16) 0.
F2 F1- 0.0152(19) 0.016(2) 0.027(2) 0. 0.0037(16) 0.
F3 F1- 0.020(2) 0.017(2) 0.0213(18) 0. 0.0112(16) 0.
F4 F1- 0.0150(19) 0.0147(19) 0.0192(18) 0. 0.0055(15) 0.
F5 F1- 0.0188(19) 0.016(2) 0.0182(18) 0. 0.0034(15) 0.
F6 F1- 0.0182(19) 0.024(2) 0.0097(16) 0. 0.0059(14) 0.
#End of TTdata_429064-ICSD