
#(C) 2019 by FIZ Karlsruhe - Leibniz Institute for Information Infrastructure.  All rights reserved.
data_429090-ICSD
_database_code_ICSD 429090
_audit_creation_date 2016-02-01
_chemical_name_systematic 'Pentasodium erbium hexahydroxide tetraoxotungstate'
_chemical_formula_structural 'Na5 Er (O H)6 (W O4)'
_chemical_formula_sum 'H6 Er1 Na5 O10 W1'
_exptl_crystal_density_diffrn 3.92
_cell_measurement_temperature 100.
_publ_section_title

;
Hydroflux synthesis and crystal structure of new lanthanide tungstate
oxyhydroxides
;
loop_
_citation_id
_citation_journal_full
_citation_year
_citation_journal_volume
_citation_page_first
_citation_page_last
_citation_journal_id_ASTM
primary 'Solid State Sciences' 2015 42 14 19 SSSCFJ
loop_
_publ_author_name
'Latshaw, Allison M.'
'Smith, Mark D.'
'Chance, W. Michael'
'zur Loye, Hans-Conrad'
_cell_length_a 11.2412(6)
_cell_length_b 16.2074(9)
_cell_length_c 12.0323(7)
_cell_angle_alpha 90
_cell_angle_beta 102.025(2)
_cell_angle_gamma 90
_cell_volume 2144.06
_cell_formula_units_Z 8
_symmetry_space_group_name_H-M 'I 1 2/a 1'
_symmetry_Int_Tables_number 15
_refine_ls_R_factor_all 0.0267
loop_
_symmetry_equiv_pos_site_id
_symmetry_equiv_pos_as_xyz
1 'x+1/2, -y, z'
2 '-x, -y, -z'
3 '-x+1/2, y, -z'
4 'x, y, z'
5 'x, -y+1/2, z+1/2'
6 '-x+1/2, -y+1/2, -z+1/2'
7 '-x, y+1/2, -z+1/2'
8 'x+1/2, y+1/2, z+1/2'
loop_
_atom_type_symbol
_atom_type_oxidation_number
W6+ 6
Er3+ 3
Na1+ 1
O2- -2
H1+ 1
O2- -2
H1+ 1
O2- -2
H1+ 1
O2- -2
H1+ 1
O2- -2
H1+ 1
O2- -2
H1+ 1
O2- -2
loop_
_atom_site_label
_atom_site_type_symbol
_atom_site_symmetry_multiplicity
_atom_site_Wyckoff_symbol
_atom_site_fract_x
_atom_site_fract_y
_atom_site_fract_z
_atom_site_B_iso_or_equiv
_atom_site_occupancy
_atom_site_attached_hydrogens
W1 W6+ 8 f 0.54867(2) 0.24814(2) 0.21456(2) 0.00515(5) 1 0
Er1 Er3+ 4 e 0.25 0.04354(2) 0.5 0.00477(6) 1 0
Er2 Er3+ 4 e 0.25 0.45594(2) 0.5 0.00448(6) 1 0
Na1 Na1+ 8 f 0.25396(14) -0.06089(11) 0.25088(13) 0.0079(3) 1 0
Na2 Na1+ 8 f 0.25496(14) 0.15356(10) 0.24983(13) 0.0079(3) 1 0
Na3 Na1+ 8 f 0.49424(14) 0.04696(10) 0.37354(13) 0.0083(3) 1 0
Na4 Na1+ 8 f 0.49574(14) 0.44407(10) 0.36869(14) 0.0089(3) 1 0
Na5 Na1+ 4 e 0.25 0.24806(12) 0.5 0.0081(4) 1 0
Na6 Na1+ 4 e 0.75 0.31289(15) 0.5 0.0124(4) 1 0
O1 O2- 8 f 0.1317(2) 0.04888(16) 0.3220(2) 0.0066(5) 1 0
H1 H1+ 8 f 0.094(6) 0.092(3) 0.329(6) 0.04(2) 1 0
O2 O2- 8 f 0.3666(3) -0.05011(16) 0.4404(2) 0.0082(5) 1 0
H2 H1+ 8 f 0.379(6) -0.1011(14) 0.442(6) 0.028(17) 1 0
O3 O2- 8 f 0.3634(2) 0.14049(16) 0.4390(2) 0.0066(5) 1 0
H3 H1+ 8 f 0.427(5) 0.167(5) 0.465(7) 0.07(3) 1 0
O4 O2- 8 f 0.1320(2) 0.45569(16) 0.3227(2) 0.0067(5) 1 0
H4 H1+ 8 f 0.080(6) 0.419(4) 0.316(7) 0.05(2) 1 0
O5 O2- 8 f 0.3617(2) 0.35838(16) 0.4402(2) 0.0071(5) 1 0
H5 H1+ 8 f 0.405(6) 0.318(3) 0.466(7) 0.06(3) 1 0
O6 O2- 8 f 0.3639(3) 0.55158(17) 0.4434(2) 0.0085(5) 1 0
H6 H1+ 8 f 0.387(5) 0.597(2) 0.425(5) 0.019(15) 1 0
O7 O2- 8 f 0.6168(3) 0.33020(17) 0.3058(2) 0.0105(5) 1 0
O8 O2- 8 f 0.3866(2) 0.25588(16) 0.1904(2) 0.0086(5) 1 0
O9 O2- 8 f 0.5916(3) 0.14945(17) 0.2742(3) 0.0124(5) 1 0
O10 O2- 8 f 0.5913(3) 0.25430(17) 0.0813(2) 0.0117(5) 1 0
loop_
_atom_site_aniso_label
_atom_site_aniso_type_symbol
_atom_site_aniso_U_11
_atom_site_aniso_U_22
_atom_site_aniso_U_33
_atom_site_aniso_U_12
_atom_site_aniso_U_13
_atom_site_aniso_U_23
W1 W6+ 0.00380(7) 0.00568(7) 0.00577(7) 0.00006(5) 0.00055(5) -0.00032(5)
Er1 Er3+ 0.00368(10) 0.00610(10) 0.00421(10) 0. 0.00009(7) 0.
Er2 Er3+ 0.00334(10) 0.00566(9) 0.00413(10) 0. 0.00006(7) 0.
Na1 Na1+ 0.0070(6) 0.0106(7) 0.0055(6) -0.0013(5) 0.0000(5) 0.0000(5)
Na2 Na1+ 0.0090(7) 0.0078(7) 0.0064(6) 0.0003(5) 0.0007(5) -0.0003(5)
Na3 Na1+ 0.0060(7) 0.0111(7) 0.0077(7) 0.0013(5) 0.0014(6) 0.0006(5)
Na4 Na1+ 0.0063(7) 0.0117(7) 0.0084(7) -0.0017(5) 0.0007(6) 0.0010(6)
Na5 Na1+ 0.0082(9) 0.0074(9) 0.0083(9) 0. 0.0012(7) 0.
Na6 Na1+ 0.0098(10) 0.0174(11) 0.0097(10) 0. 0.0015(8) 0.
O1 O2- 0.0069(12) 0.0083(11) 0.0045(11) 0.0006(8) 0.0007(10) 0.0006(9)
O2 O2- 0.0076(12) 0.0062(11) 0.0095(12) 0.0021(9) -0.0011(10) -0.0001(9)
O3 O2- 0.0056(11) 0.0068(10) 0.0078(12) -0.0002(8) 0.0020(9) 0.0004(9)
O4 O2- 0.0059(12) 0.0092(11) 0.0044(11) -0.0017(8) -0.0002(9) -0.0006(9)
O5 O2- 0.0057(11) 0.0068(11) 0.0088(12) 0.0008(8) 0.0014(10) 0.0002(9)
O6 O2- 0.0083(12) 0.0094(11) 0.0067(12) -0.0039(9) -0.0010(10) 0.0010(9)
O7 O2- 0.0102(12) 0.0113(12) 0.0104(12) -0.0015(9) 0.0033(10) -0.0006(10)
O8 O2- 0.0050(10) 0.0118(12) 0.0093(11) 0.0022(9) 0.0023(9) -0.0004(9)
O9 O2- 0.0087(12) 0.0117(12) 0.0170(14) 0.0032(9) 0.0036(11) 0.0016(10)
O10 O2- 0.0112(12) 0.0161(13) 0.0088(11) -0.0003(10) 0.0042(10) -0.0012(10)
#End of TTdata_429090-ICSD