
#(C) 2019 by FIZ Karlsruhe - Leibniz Institute for Information Infrastructure.  All rights reserved.
data_429012-ICSD
_database_code_ICSD 429012
_audit_creation_date 2016-02-01
_chemical_name_systematic 'Sodium dibarium tin tetrasulfide chloride'
_chemical_formula_structural 'Na Ba2 Sn S4 Cl'
_chemical_formula_sum 'Ba2 Cl1 Na1 S4 Sn1'
_chemical_name_structure_type Cs3CoCl5
_exptl_crystal_density_diffrn 3.99
_cell_measurement_temperature 293.
_publ_section_title

;
Four new chalcohalides, Na Ba2 Sn S4 Cl,  K Ba2 Sn S4 Cl, K Ba2 Sn S4 Br and
Cs Ba2 Sn S4 Cl: Syntheses, crystal structures and optical properties
;
loop_
_citation_id
_citation_journal_full
_citation_year
_citation_journal_volume
_citation_page_first
_citation_page_last
_citation_journal_id_ASTM
primary 'Journal of Solid State Chemistry' 2015 227 104 109 JSSCBI
loop_
_publ_author_name
'Li, Chao'
'Feng, Kai'
'Tu, Heng'
'Yao, Jiyong'
'Wu, Yicheng'
_cell_length_a 8.21620(10)
_cell_length_b 8.21620(10)
_cell_length_c 14.3022(5)
_cell_angle_alpha 90.
_cell_angle_beta 90.
_cell_angle_gamma 90.
_cell_volume 965.48
_cell_formula_units_Z 4
_symmetry_space_group_name_H-M 'I 4/m c m'
_symmetry_Int_Tables_number 140
_refine_ls_R_factor_all 0.0345
loop_
_symmetry_equiv_pos_site_id
_symmetry_equiv_pos_as_xyz
1 'y, x, -z+1/2'
2 '-y, -x, -z+1/2'
3 '-y, x, -z'
4 'y, -x, -z'
5 'x, -y, -z+1/2'
6 '-x, y, -z+1/2'
7 'x, y, -z'
8 '-x, -y, -z'
9 '-y, -x, z+1/2'
10 'y, x, z+1/2'
11 'y, -x, z'
12 '-y, x, z'
13 '-x, y, z+1/2'
14 'x, -y, z+1/2'
15 '-x, -y, z'
16 'x, y, z'
17 'y+1/2, x+1/2, -z'
18 '-y+1/2, -x+1/2, -z'
19 '-y+1/2, x+1/2, -z+1/2'
20 'y+1/2, -x+1/2, -z+1/2'
21 'x+1/2, -y+1/2, -z'
22 '-x+1/2, y+1/2, -z'
23 'x+1/2, y+1/2, -z+1/2'
24 '-x+1/2, -y+1/2, -z+1/2'
25 '-y+1/2, -x+1/2, z'
26 'y+1/2, x+1/2, z'
27 'y+1/2, -x+1/2, z+1/2'
28 '-y+1/2, x+1/2, z+1/2'
29 '-x+1/2, y+1/2, z'
30 'x+1/2, -y+1/2, z'
31 '-x+1/2, -y+1/2, z+1/2'
32 'x+1/2, y+1/2, z+1/2'
loop_
_atom_type_symbol
_atom_type_oxidation_number
Sn4+ 4
Ba2+ 2
Na1+ 1
S2- -2
Cl1- -1
loop_
_atom_site_label
_atom_site_type_symbol
_atom_site_symmetry_multiplicity
_atom_site_Wyckoff_symbol
_atom_site_fract_x
_atom_site_fract_y
_atom_site_fract_z
_atom_site_B_iso_or_equiv
_atom_site_occupancy
_atom_site_attached_hydrogens
Sn1 Sn4+ 4 b 0.5 0. 0.25 0.0134(6) 1 0
Ba1 Ba2+ 4 a 0. 0. 0.25 0.0251(6) 1 0
Ba2 Ba2+ 8 h 0.35141(16) 0.14859(16) 0.5 0.0235(8) 0.500(8) 0
Na1 Na1+ 8 h 0.35141(16) 0.14859(16) 0.5 0.0235(8) 0.500(8) 0
S1 S2- 16 l 0.3416(3) 0.1584(3) 0.1461(2) 0.0256(9) 1 0
Cl1 Cl1- 4 c 0. 0. 0.5 0.0307(15) 1 0
loop_
_atom_site_aniso_label
_atom_site_aniso_type_symbol
_atom_site_aniso_U_11
_atom_site_aniso_U_22
_atom_site_aniso_U_33
_atom_site_aniso_U_12
_atom_site_aniso_U_13
_atom_site_aniso_U_23
Sn1 Sn4+ 0.0141(7) 0.0141(7) 0.0121(8) 0. 0. 0.
Ba1 Ba2+ 0.0178(7) 0.0178(7) 0.0396(10) 0. 0. 0.
Ba2 Ba2+ 0.0283(10) 0.0283(10) 0.0138(10) 0.0053(8) 0. 0.
Na1 Na1+ 0.0283(10) 0.0283(10) 0.0138(10) 0.0053(8) 0. 0.
S1 S2- 0.0265(12) 0.0265(12) 0.0238(16) 0.0059(13) -0.0054(9) 0.0054(9)
Cl1 Cl1- 0.025(2) 0.025(2) 0.042(3) 0. 0. 0.
#End of TTdata_429012-ICSD