
#(C) 2019 by FIZ Karlsruhe - Leibniz Institute for Information Infrastructure.  All rights reserved.
data_4290-ICSD
_database_code_ICSD 4290
_audit_creation_date 1980-01-01
_audit_update_record 1998-06-26
_chemical_name_systematic 'Sodium pentakis(sulfate) tetrafluoride chloride'
_chemical_formula_structural 'Na15 (S O4)5 F4 Cl'
_chemical_formula_sum 'Cl1 F4 Na15 O20 S5'
_chemical_name_mineral Galeite
_exptl_crystal_density_diffrn 2.6
_publ_section_title 'The crystal structure of galeite, Na15 (S O4)5 F4 Cl'
loop_
_citation_id
_citation_journal_full
_citation_year
_citation_journal_volume
_citation_page_first
_citation_page_last
_citation_journal_id_ASTM
primary 'Mineralogical Magazine' 1975 40 357 361 MNLMBB
loop_
_publ_author_name
'Fanfani, L.'
'Nunzi, A.'
'Zanazzi, P.F.'
'Zanzari, A.R.'
_cell_length_a 12.197(4)
_cell_length_b 12.197(4)
_cell_length_c 13.955(10)
_cell_angle_alpha 90.
_cell_angle_beta 90.
_cell_angle_gamma 120.
_cell_volume 1797.9
_cell_formula_units_Z 3
_symmetry_space_group_name_H-M 'P 3 1 m'
_symmetry_Int_Tables_number 157
_refine_ls_R_factor_all 0.09
loop_
_symmetry_equiv_pos_site_id
_symmetry_equiv_pos_as_xyz
1 'x-y, -y, z'
2 '-x, -x+y, z'
3 'y, x, z'
4 '-x+y, -x, z'
5 '-y, x-y, z'
6 'x, y, z'
loop_
_atom_type_symbol
_atom_type_oxidation_number
Cl1- -1
S6+ 6
Na1+ 1
F1- -1
O2- -2
loop_
_atom_site_label
_atom_site_type_symbol
_atom_site_symmetry_multiplicity
_atom_site_Wyckoff_symbol
_atom_site_fract_x
_atom_site_fract_y
_atom_site_fract_z
_atom_site_B_iso_or_equiv
_atom_site_occupancy
_atom_site_attached_hydrogens
Cl1 Cl1- 1 a 0 0 0 1.11(4) 1. 0
Cl2 Cl1- 2 b 0.6667 0.3333 0.0447(5) 1.11(4) 1. 0
S1 S6+ 1 a 0 0 0.3243(7) 0.63(5) 1. 0
S2 S6+ 2 b 0.6667 0.3333 0.3440(7) 0.63(5) 1. 0
S3 S6+ 1 a 0 0 0.6957(7) 0.55(4) 1. 0
S4 S6+ 2 b 0.6667 0.3333 0.7200(6) 0.55(4) 1. 0
S5 S6+ 3 c 0.6700(3) 0 0.9216(6) 0.46(4) 1. 0
S6 S6+ 3 c 0.3365(3) 0 0.5092(6) 0.51(4) 1. 0
S7 S6+ 3 c 0.3339(5) 0 0.1311(6) 0.64(4) 1. 0
Na1 Na1+ 3 c 0.5118(5) 0 0.7167(7) 1.22(4) 1. 0
Na2 Na1+ 6 d 0.1588(5) 0.3342(6) 0.7141(7) 1.22(5) 1. 0
Na3 Na1+ 3 c 0.8161(5) 0 0.5253(7) 1.29(6) 1. 0
Na4 Na1+ 6 d 0.4852(4) 0.3326(4) 0.5310(6) 1.29(6) 1. 0
Na5 Na1+ 3 c 0.1914(6) 0 0.8954(7) 1.19(6) 1. 0
Na6 Na1+ 6 d 0.8465(5) 0.3357(5) 0.9072(6) 1.19(6) 1. 0
Na7 Na1+ 3 c 0.8251(5) 0 0.1324(7) 1.15(6) 1. 0
Na8 Na1+ 6 d 0.4782(5) 0.3300(5) 0.1414(6) 1.15(6) 1. 0
Na9 Na1+ 3 c 0.5210(5) 0 0.3274(7) 1.18(6) 1. 0
Na10 Na1+ 6 d 0.1799(4) 0.3322(5) 0.3312(6) 1.18(6) 1. 0
F1 F1- 3 c 0.6795(7) 0 0.6394(8) 0.84(12) 1. 0
F2 F1- 3 c 0.6754(7) 0 0.2389(8) 0.70(11) 1. 0
F3 F1- 3 c 0.6592(8) 0 0.4316(9) 1.59(13) 1. 0
F4 F1- 3 c 0.3494(9) 0 0.7962(10) 2.37(21) 1. 0
O1 O2- 1 a 0 0 0.2243(17) 1.7(2) 1. 0
O2 O2- 3 c 0.8848(9) 0 0.3651(10) 1.42(9) 1. 0
O3 O2- 2 b 0.6667 0.3333 0.4441(13) 1.7(2) 1. 0
O4 O2- 6 d 0.6704(7) 0.2209(8) 0.3098(8) 1.42(9) 1. 0
O5 O2- 1 a 0 0 0.5887(13) 0.70(13) 1. 0
O6 O2- 3 c 0.1142(10) 0 0.7345(10) 1.47(9) 1. 0
O7 O2- 2 b 0.6667 0.3333 0.827(10) 0.70(13) 1. 0
O8 O2- 6 d 0.6677(7) 0.2202(8) 0.6872(8) 1.47(9) 1. 0
O9 O2- 3 c 0.6693(9) 0 0.0231(8) 0.33(11) 1. 0
O10 O2- 3 c 0.5536(9) 0 0.8853(9) 0.62(16) 1. 0
O11 O2- 6 d 0.7814(8) 0.1146(8) 0.8786(8) 1.07(12) 1. 0
O12 O2- 3 c 0.3476(10) 0 0.3967(11) 1.67(21) 1. 0
O13 O2- 3 c 0.4506(9) 0 0.5484(9) 1.31(16) 1. 0
O14 O2- 6 d 0.8843(8) 0.2179(9) 0.5412(8) 1.78(13) 1. 0
O15 O2- 3 c 0.3393(15) 0 0.0225(13) 3.04(28) 1. 0
O16 O2- 3 c 0.4487(10) 0 0.1561(10) 1.23(20) 1. 0
O17 O2- 6 d 0.3341(10) 0.1141(9) 0.1599(8) 1.64(14) 1. 0
#End of TTdata_4290-ICSD