
#(C) 2019 by FIZ Karlsruhe - Leibniz Institute for Information Infrastructure.  All rights reserved.
data_429321-ICSD
_database_code_ICSD 429321
_audit_creation_date 2016-02-01
_chemical_name_systematic
'Pentasodium tetrasamarium tetrakis(tetraoxosilicate) fluoride'
_chemical_formula_structural 'Na5 Sm4 (Si O4)4 F'
_chemical_formula_sum 'F1 Na5 O16 Si4 Sm4'
_chemical_name_structure_type (NaYSiO4)4NaF
_exptl_crystal_density_diffrn 4.82
_cell_measurement_temperature 294.
_publ_section_title

;
A5 RE4 X (T O4)4 crystal growth and photoluminescence. Fluoride flux synthesis
of sodium and potassium rare earth silicate oxyfluorides
;
loop_
_citation_id
_citation_journal_full
_citation_year
_citation_journal_volume
_citation_page_first
_citation_page_last
_citation_journal_id_ASTM
primary CrystEngComm 2015 17 4654 4661 CRECF4
loop_
_publ_author_name
'Latshaw, Allison M.'
'Wilkins, Branford O.'
'Hughey, Kendall D.'
'Yeon, Jeongho'
'Williams, Derek E.'
'Tran, T. Thao'
'Halasyamanib, P. Shiv'
'Loye, Hans-Conrad zur'
_cell_length_a 11.8246(2)
_cell_length_b 11.8246(2)
_cell_length_c 5.44190(10)
_cell_angle_alpha 90.
_cell_angle_beta 90.
_cell_angle_gamma 90.
_cell_volume 760.89
_cell_formula_units_Z 2
_symmetry_space_group_name_H-M 'I -4'
_symmetry_Int_Tables_number 82
_refine_ls_R_factor_all 0.0115
loop_
_symmetry_equiv_pos_site_id
_symmetry_equiv_pos_as_xyz
1 '-y, x, -z'
2 'y, -x, -z'
3 '-x, -y, z'
4 'x, y, z'
5 '-y+1/2, x+1/2, -z+1/2'
6 'y+1/2, -x+1/2, -z+1/2'
7 '-x+1/2, -y+1/2, z+1/2'
8 'x+1/2, y+1/2, z+1/2'
loop_
_atom_type_symbol
_atom_type_oxidation_number
Sm3+ 3
Si4+ 4
Na1+ 1
F1- -1
O2- -2
loop_
_atom_site_label
_atom_site_type_symbol
_atom_site_symmetry_multiplicity
_atom_site_Wyckoff_symbol
_atom_site_fract_x
_atom_site_fract_y
_atom_site_fract_z
_atom_site_B_iso_or_equiv
_atom_site_occupancy
_atom_site_attached_hydrogens
Sm1 Sm3+ 8 g 0.316021(13) 0.383637(12) -0.01952(3) 0.00719(7) 1 0
Si1 Si4+ 8 g 0.10247(7) 0.24711(7) 0.0093(2) 0.00677(17) 1 0
Na1 Na1+ 8 g -0.10479(12) 0.41054(12) -0.0080(4) 0.0186(3) 1 0
Na2 Na1+ 2 a 0. 0. 0. 0.0244(7) 1 0
F1 F1- 2 b 0.5 0.5 0. 0.0124(8) 1 0
O1 O2- 8 g 0.10717(19) 0.38458(19) -0.0146(5) 0.0114(5) 1 0
O2 O2- 8 g 0.0476(2) 0.1897(2) -0.2330(5) 0.0109(5) 1 0
O3 O2- 8 g 0.0354(2) 0.2081(2) 0.2555(5) 0.0117(5) 1 0
O4 O2- 8 g 0.23230(19) 0.2024(2) 0.0537(5) 0.0098(5) 1 0
loop_
_atom_site_aniso_label
_atom_site_aniso_type_symbol
_atom_site_aniso_U_11
_atom_site_aniso_U_22
_atom_site_aniso_U_33
_atom_site_aniso_U_12
_atom_site_aniso_U_13
_atom_site_aniso_U_23
Sm1 Sm3+ 0.00690(9) 0.00632(9) 0.00835(9) 0.00019(5) -0.00009(6) -0.00044(6)
Si1 Si4+ 0.0069(4) 0.0076(4) 0.0058(4) -0.0003(3) 0.0002(4) -0.0001(4)
Na1 Na1+ 0.0148(6) 0.0144(6) 0.0265(9) -0.0008(5) 0.0009(7) -0.0017(8)
Na2 Na1+ 0.0196(9) 0.0196(9) 0.034(2) 0. 0. 0.
F1 F1- 0.0097(10) 0.0097(10) 0.018(2) 0. 0. 0.
O1 O2- 0.0099(10) 0.0087(10) 0.0156(13) 0.0019(8) 0.0002(11) -0.0008(11)
O2 O2- 0.0097(13) 0.0168(14) 0.0062(11) 0.0011(11) -0.0010(10) -0.0018(10)
O3 O2- 0.0093(13) 0.0178(14) 0.0079(12) -0.0004(10) 0.0029(10) 0.0040(10)
O4 O2- 0.0080(10) 0.0094(10) 0.0121(12) -0.0016(8) -0.0012(9) 0.0003(9)
#End of TTdata_429321-ICSD