
#(C) 2019 by FIZ Karlsruhe - Leibniz Institute for Information Infrastructure.  All rights reserved.
data_429357-ICSD
_database_code_ICSD 429357
_audit_creation_date 2016-02-01
_chemical_name_systematic
'Tetrarubidium hexaaqua sodium hydrogendecavanadate tetrahydrate'
_chemical_formula_structural 'Rb4 (Na (H2 O)6) (H V10 O28) (H2 O)4'
_chemical_formula_sum 'H21 Na1 O38 Rb4 V10'
_exptl_crystal_density_diffrn 3.05
_cell_measurement_temperature 100.
_publ_section_title

;
One-dimensional decavanadate chains in the crystal structure of Rb4 [Na (H2
O)6] [H V10 O28] * 4 H2 O
;
loop_
_citation_id
_citation_journal_full
_citation_year
_citation_journal_volume
_citation_page_first
_citation_page_last
_citation_journal_id_ASTM
primary 'Acta Crystallographica, Section C: Structural Chemistry' 2015 71 465
473 ACSCGG
loop_
_publ_author_name
'Yakubovich, Olga V.'
'Steele, Ian M.'
'Yakovleva, Ekaterina V.'
'Dimitrova, Olga V.'
_cell_length_a 10.7971(5)
_cell_length_b 11.0286(5)
_cell_length_c 13.7963(6)
_cell_angle_alpha 90.
_cell_angle_beta 94.4500(16)
_cell_angle_gamma 90.
_cell_volume 1637.86
_cell_formula_units_Z 2
_symmetry_space_group_name_H-M 'P 1 2/n 1'
_symmetry_Int_Tables_number 13
_refine_ls_R_factor_all 0.0317
loop_
_symmetry_equiv_pos_site_id
_symmetry_equiv_pos_as_xyz
1 'x+1/2, -y, z+1/2'
2 '-x+1/2, y, -z+1/2'
3 '-x, -y, -z'
4 'x, y, z'
loop_
_atom_type_symbol
_atom_type_oxidation_number
V5+ 5
Rb1+ 1
V5+ 5
Rb1+ 1
Na1+ 1
O2- -2
H1+ 1
loop_
_atom_site_label
_atom_site_type_symbol
_atom_site_symmetry_multiplicity
_atom_site_Wyckoff_symbol
_atom_site_fract_x
_atom_site_fract_y
_atom_site_fract_z
_atom_site_B_iso_or_equiv
_atom_site_occupancy
_atom_site_attached_hydrogens
V1 V5+ 4 g 0.40157(5) 0.72260(5) 0.25833(4) 0.00547(11) 1 0
Rb1 Rb1+ 4 g 0.75855(3) 0.77959(3) 0.03544(2) 0.01080(8) 1 0
V2 V5+ 4 g 0.10598(5) 0.72199(5) 0.02107(4) 0.00942(12) 1 0
V3 V5+ 4 g 0.38929(5) 0.72219(5) 0.03483(4) 0.00713(12) 1 0
V4 V5+ 4 g 0.24799(5) 0.92450(5) 0.13965(4) 0.00618(11) 1 0
V5 V5+ 4 g 0.25573(5) 0.51712(5) 0.14128(4) 0.00639(12) 1 0
Rb2 Rb1+ 4 g 0.54113(3) 0.79913(3) -0.24020(2) 0.01195(8) 1 0
Na1 Na1+ 2 f 0.75 0.99345(15) 0.25 0.0101(4) 1 0
O1 O2- 4 g 0.49314(19) 0.72122(18) 0.16453(15) 0.0080(4) 1 0
O2 O2- 4 g 0.9031(2) 0.9973(2) 0.13562(17) 0.0137(5) 1 0
O3 O2- 4 g 0.37038(19) 0.55569(18) 0.06091(15) 0.0079(4) 1 0
O4 O2- 4 g 0.49683(19) 0.72219(18) 0.36108(15) 0.0083(4) 1 0
O5 O2- 4 g 0.25466(19) 0.37180(19) 0.14267(15) 0.0094(5) 1 0
O6 O2- 4 g 0.36415(18) 0.55109(18) 0.25682(14) 0.0060(4) 1 0
O7 O2- 4 g 0.24624(19) 0.72142(18) -0.04499(15) 0.0082(4) 1 0
O8 O2- 4 g 0.4976(2) 0.72560(19) -0.03851(16) 0.0105(5) 1 0
O9 O2- 4 g 0.12194(19) 0.55375(19) 0.04649(15) 0.0084(5) 1 0
O10 O2- 4 g 0.36496(18) 0.89293(18) 0.25627(15) 0.0069(4) 1 0
O11 O2- 4 g 0.37202(19) 0.88755(19) 0.06156(15) 0.0085(5) 1 0
O12 O2- 4 g 0.24781(19) 1.07086(19) 0.14068(15) 0.0094(5) 1 0
O13 O2- 4 g 0.25203(18) 0.72109(18) 0.34656(15) 0.0074(4) 1 0
O14 O2- 4 g -0.0068(2) 0.72361(19) -0.06110(16) 0.0116(5) 1 0
O15 O2- 4 g 0.12369(19) 0.88781(19) 0.04829(15) 0.0086(5) 1 0
O16 O2- 2 f 0.25 0.7950(3) -0.25 0.0165(7) 1 0
O17 O2- 2 f 0.75 0.7759(3) 0.25 0.0090(6) 1 0
O18 O2- 4 g 0.6030(2) 0.9917(2) 0.11687(17) 0.0138(5) 1 0
O19 O2- 4 g 0.7109(2) 0.5460(2) 0.12259(18) 0.0166(5) 1 0
O20 O2- 4 g 0.5902(2) 0.4364(2) 0.27005(18) 0.0163(5) 1 0
H1 H1+ 4 g 0.610(4) 1.032(3) 0.0650(16) 0.035(9) 1 0
H2 H1+ 4 g 0.7832(17) 0.516(4) 0.134(3) 0.044(10) 1 0
H3 H1+ 4 g 0.240(4) 0.758(3) -0.1970(16) 0.038(9) 1 0
H4 H1+ 4 g 0.889(4) 1.030(4) 0.0800(13) 0.039(9) 1 0
H5 H1+ 4 g 0.967(2) 0.952(3) 0.136(3) 0.039(9) 1 0
H6 H1+ 4 g 0.697(4) 0.509(4) 0.0689(16) 0.044(10) 1 0
H7 H1+ 4 g 0.538(2) 0.949(3) 0.117(3) 0.035(9) 1 0
H8 H1+ 4 g 0.621(4) 0.467(4) 0.221(2) 0.051(11) 1 0
H9 H1+ 4 g 0.521(2) 0.473(4) 0.265(3) 0.051(11) 1 0
H10 H1+ 4 g 0.810(2) 0.729(3) 0.268(3) 0.038(9) 1 0
H11 H1+ 4 g 0.069(7) 0.491(7) 0.065(8) 0.12(5) 0.5 0
loop_
_atom_site_aniso_label
_atom_site_aniso_type_symbol
_atom_site_aniso_U_11
_atom_site_aniso_U_22
_atom_site_aniso_U_33
_atom_site_aniso_U_12
_atom_site_aniso_U_13
_atom_site_aniso_U_23
V1 V5+ 0.0042(2) 0.0053(3) 0.0069(3) 0.0000(2) 0.0001(2) -0.0005(2)
Rb1 Rb1+ 0.01140(15) 0.01237(17) 0.00842(15) 0.00124(12) -0.00059(12)
-0.00069(12)
V2 V5+ 0.0068(3) 0.0146(3) 0.0068(3) -0.0016(2) 0.0003(2) -0.0027(2)
V3 V5+ 0.0069(2) 0.0077(3) 0.0071(3) -0.0008(2) 0.0020(2) -0.0007(2)
V4 V5+ 0.0070(3) 0.0056(3) 0.0059(2) -0.0002(2) 0.0003(2) 0.0003(2)
V5 V5+ 0.0079(3) 0.0050(3) 0.0063(3) -0.0003(2) 0.0008(2) -0.0010(2)
Rb2 Rb1+ 0.01160(16) 0.01445(16) 0.00942(15) -0.00240(12) -0.00161(12)
0.00034(12)
Na1 Na1+ 0.0115(9) 0.0090(9) 0.0093(9) 0. -0.0016(7) 0.
O1 O2- 0.0065(10) 0.0079(11) 0.0099(11) 0.0001(9) 0.0020(9) 0.0010(9)
O2 O2- 0.0106(12) 0.0132(12) 0.0174(13) 0.0052(10) 0.0018(10) 0.0016(10)
O3 O2- 0.0093(11) 0.0061(11) 0.0087(11) -0.0003(9) 0.0029(9) -0.0009(9)
O4 O2- 0.0074(10) 0.0060(11) 0.0115(11) 0.0017(9) 0.0003(9) -0.0015(9)
O5 O2- 0.0107(11) 0.0091(11) 0.0082(11) 0.0004(9) -0.0001(9) -0.0017(9)
O6 O2- 0.0054(10) 0.0061(11) 0.0068(10) -0.0001(8) 0.0020(8) -0.0001(8)
O7 O2- 0.0088(11) 0.0086(11) 0.0073(11) -0.0011(9) 0.0012(9) -0.0008(9)
O8 O2- 0.0112(11) 0.0113(11) 0.0094(11) 0.0011(9) 0.0024(9) -0.0004(9)
O9 O2- 0.0080(11) 0.0069(11) 0.0104(11) -0.0010(9) 0.0013(9) 0.0008(9)
O10 O2- 0.0071(10) 0.0046(11) 0.0087(11) -0.0013(8) -0.0010(9) 0.0003(8)
O11 O2- 0.0096(11) 0.0082(11) 0.0079(11) -0.0019(9) 0.0018(9) 0.0008(9)
O12 O2- 0.0110(11) 0.0063(11) 0.0110(11) -0.0001(9) 0.0008(9) -0.0023(9)
O13 O2- 0.0069(11) 0.0049(11) 0.0107(11) 0.0003(8) 0.0017(9) -0.0004(9)
O14 O2- 0.0090(11) 0.0169(13) 0.0089(11) -0.0008(9) 0.0001(9) -0.0041(9)
O15 O2- 0.0080(11) 0.0096(11) 0.0083(11) 0.0003(9) 0.0007(9) -0.0008(9)
O16 O2- 0.0205(18) 0.0106(18) 0.0189(19) 0. 0.0042(16) 0.
O17 O2- 0.0090(16) 0.0080(17) 0.0094(16) 0. -0.0024(13) 0.
O18 O2- 0.0104(11) 0.0172(13) 0.0131(12) -0.0078(10) -0.0037(10) 0.0075(10)
O19 O2- 0.0208(13) 0.0150(13) 0.0139(13) -0.0002(11) 0.0006(11) -0.0048(10)
O20 O2- 0.0116(12) 0.0164(13) 0.0214(13) 0.0051(10) 0.0052(11) 0.0022(11)
#End of TTdata_429357-ICSD