
#(C) 2019 by FIZ Karlsruhe - Leibniz Institute for Information Infrastructure.  All rights reserved.
data_429397-ICSD
_database_code_ICSD 429397
_audit_creation_date 2015-08-01
_chemical_name_systematic 'Sodium nickel trifluoride trihydrate'
_chemical_formula_structural 'Na Ni F3 (H2 O)3'
_chemical_formula_sum 'H6 F3 Na1 Ni1 O3'
_chemical_name_structure_type MgSn(OH)6
_exptl_crystal_density_diffrn 2.58
_cell_measurement_temperature 298.
_publ_section_title

;
Synthesis and characterization of Na Ni F3 * 3(H2 O): an unusual ordered
variant of the Re O3 type
;
loop_
_citation_id
_citation_journal_full
_citation_year
_citation_journal_volume
_citation_page_first
_citation_page_last
_citation_journal_id_ASTM
primary 'Inorganic Chemistry' 2015 54 3172 3182 INOCAJ
loop_
_publ_author_name
'Gonzalo, Elena C.'
'Sanjuan, Maria Luisa'
'Hoelzel, Markus'
'Azcondo, M. Teresa'
'Amador, Ulises'
'Sobrados, Isabel'
'Sanz, Jesus'
'Garcia-Alvarado, Flaviano'
'Kuhn, Alois'
_cell_length_a 7.92133(6)
_cell_length_b 7.92133(6)
_cell_length_c 7.92133(6)
_cell_angle_alpha 90.
_cell_angle_beta 90.
_cell_angle_gamma 90.
_cell_volume 497.04
_cell_formula_units_Z 4
_symmetry_space_group_name_H-M 'P n -3 Z'
_symmetry_Int_Tables_number 201
_refine_ls_R_factor_all 0.042
loop_
_symmetry_equiv_pos_site_id
_symmetry_equiv_pos_as_xyz
1 '-z, x+1/2, y+1/2'
2 'z+1/2, x+1/2, -y'
3 'z+1/2, -x, y+1/2'
4 '-z, -x, -y'
5 'y+1/2, -z, x+1/2'
6 '-y, z+1/2, x+1/2'
7 'y+1/2, z+1/2, -x'
8 '-y, -z, -x'
9 'x+1/2, y+1/2, -z'
10 'x+1/2, -y, z+1/2'
11 '-x, y+1/2, z+1/2'
12 '-x, -y, -z'
13 'z, -x+1/2, -y+1/2'
14 '-z+1/2, -x+1/2, y'
15 '-z+1/2, x, -y+1/2'
16 'z, x, y'
17 '-y+1/2, z, -x+1/2'
18 'y, -z+1/2, -x+1/2'
19 '-y+1/2, -z+1/2, x'
20 'y, z, x'
21 '-x+1/2, -y+1/2, z'
22 '-x+1/2, y, -z+1/2'
23 'x, -y+1/2, -z+1/2'
24 'x, y, z'
loop_
_atom_type_symbol
_atom_type_oxidation_number
Na1+ 1
Ni2+ 2
O2- -2
F1- -1
H1+ 1
loop_
_atom_site_label
_atom_site_type_symbol
_atom_site_symmetry_multiplicity
_atom_site_Wyckoff_symbol
_atom_site_fract_x
_atom_site_fract_y
_atom_site_fract_z
_atom_site_B_iso_or_equiv
_atom_site_occupancy
_atom_site_attached_hydrogens
Na1 Na1+ 4 c 0.5 0.5 0.5 0.0092(3) 1. 0
Ni1 Ni2+ 4 b 0. 0. 0. 0.011(1) 1. 0
O1 O2- 24 h 0.2278(2) 0.4100(2) 0.5753(2) 0.012(1) 0.5 0
F1 F1- 24 h 0.2278(2) 0.4100(2) 0.5753(2) 0.012(1) 0.5 0
H1 H1+ 24 h 0.25 0.2776(5) 0.5676(5) 0.014(1) 0.5 0
H2 H1+ 24 h 0.25 0.4234(5) 0.7058(5) 0.014(1) 0.5 0
#End of TTdata_429397-ICSD