
#(C) 2019 by FIZ Karlsruhe - Leibniz Institute for Information Infrastructure.  All rights reserved.
data_429315-ICSD
_database_code_ICSD 429315
_audit_creation_date 2016-02-01
_chemical_name_systematic
'Pentasodium tetrathulium tetrakis(tetraoxosilicate) fluoride'
_chemical_formula_structural 'Na5 Tm4 (Si O4)4 F'
_chemical_formula_sum 'F1 Na5 O16 Si4 Tm4'
_chemical_name_structure_type (NaYSiO4)4NaF
_exptl_crystal_density_diffrn 5.5
_cell_measurement_temperature 294.
_publ_section_title

;
A5 RE4 X (T O4)4 crystal growth and photoluminescence. Fluoride flux synthesis
of sodium and potassium rare earth silicate oxyfluorides
;
loop_
_citation_id
_citation_journal_full
_citation_year
_citation_journal_volume
_citation_page_first
_citation_page_last
_citation_journal_id_ASTM
primary CrystEngComm 2015 17 4654 4661 CRECF4
loop_
_publ_author_name
'Latshaw, Allison M.'
'Wilkins, Branford O.'
'Hughey, Kendall D.'
'Yeon, Jeongho'
'Williams, Derek E.'
'Tran, T. Thao'
'Halasyamanib, P. Shiv'
'Loye, Hans-Conrad zur'
_cell_length_a 11.5094(2)
_cell_length_b 11.5094(2)
_cell_length_c 5.37000(10)
_cell_angle_alpha 90.
_cell_angle_beta 90.
_cell_angle_gamma 90.
_cell_volume 711.34
_cell_formula_units_Z 2
_symmetry_space_group_name_H-M 'I -4'
_symmetry_Int_Tables_number 82
_refine_ls_R_factor_all 0.0128
loop_
_symmetry_equiv_pos_site_id
_symmetry_equiv_pos_as_xyz
1 '-y, x, -z'
2 'y, -x, -z'
3 '-x, -y, z'
4 'x, y, z'
5 '-y+1/2, x+1/2, -z+1/2'
6 'y+1/2, -x+1/2, -z+1/2'
7 '-x+1/2, -y+1/2, z+1/2'
8 'x+1/2, y+1/2, z+1/2'
loop_
_atom_type_symbol
_atom_type_oxidation_number
Tm3+ 3
Si4+ 4
Na1+ 1
F1- -1
O2- -2
loop_
_atom_site_label
_atom_site_type_symbol
_atom_site_symmetry_multiplicity
_atom_site_Wyckoff_symbol
_atom_site_fract_x
_atom_site_fract_y
_atom_site_fract_z
_atom_site_B_iso_or_equiv
_atom_site_occupancy
_atom_site_attached_hydrogens
Tm1 Tm3+ 8 g 0.317722(16) 0.384844(15) -0.02283(4) 0.00567(8) 1 0
Si1 Si4+ 8 g 0.10404(10) 0.24648(10) 0.0112(3) 0.0050(2) 1 0
Na1 Na1+ 8 g -0.10489(16) 0.41079(16) -0.0055(5) 0.0145(4) 1 0
Na2 Na1+ 2 a 0. 0. 0. 0.0167(9) 1 0
F1 F1- 2 b 0.5 0.5 0. 0.0127(13) 1 0
O1 O2- 8 g 0.1099(3) 0.3872(3) -0.0122(7) 0.0094(7) 1 0
O2 O2- 8 g 0.0494(3) 0.1869(3) -0.2353(7) 0.0092(7) 1 0
O3 O2- 8 g 0.0332(3) 0.2039(3) 0.2578(7) 0.0089(7) 1 0
O4 O2- 8 g 0.2367(3) 0.2036(3) 0.0671(7) 0.0082(7) 1 0
loop_
_atom_site_aniso_label
_atom_site_aniso_type_symbol
_atom_site_aniso_U_11
_atom_site_aniso_U_22
_atom_site_aniso_U_33
_atom_site_aniso_U_12
_atom_site_aniso_U_13
_atom_site_aniso_U_23
Tm1 Tm3+ 0.00571(10) 0.00467(11) 0.00661(11) 0.00039(6) -0.00013(7) -0.00020(7)
Si1 Si4+ 0.0046(5) 0.0056(5) 0.0047(6) -0.0001(4) 0.0001(5) 0.0000(5)
Na1 Na1+ 0.0121(8) 0.0098(8) 0.0216(12) -0.0015(6) 0.0005(9) -0.0004(10)
Na2 Na1+ 0.0138(11) 0.0138(11) 0.023(2) 0. 0. 0.
F1 F1- 0.0098(15) 0.0098(15) 0.018(4) 0. 0. 0.
O1 O2- 0.0079(14) 0.0070(14) 0.0133(19) 0.0009(11) 0.0021(15) 0.0005(15)
O2 O2- 0.0049(17) 0.016(2) 0.0064(17) 0.0000(15) -0.0003(13) 0.0000(14)
O3 O2- 0.0064(16) 0.0118(18) 0.0085(17) -0.0007(14) 0.0020(14) 0.0013(14)
O4 O2- 0.0076(15) 0.0044(14) 0.0127(18) 0.0023(11) -0.0017(13) -0.0006(13)
#End of TTdata_429315-ICSD