
#(C) 2019 by FIZ Karlsruhe - Leibniz Institute for Information Infrastructure.  All rights reserved.
data_429362-ICSD
_database_code_ICSD 429362
_audit_creation_date 2016-08-01
_chemical_name_systematic 'Manganese sodium uranium(IV) fluoride'
_chemical_formula_structural 'Mn1.75 Na2.50 U6 F30'
_chemical_formula_sum 'F30 Mn1.75 Na2.5 U6'
_exptl_crystal_density_diffrn 6.44
_cell_measurement_temperature 100.
_publ_section_title

;
Mild hydrothermal crystal growth of new uranium(IV) fluorides, Na3.13 Mg1.43
U6 F30 and Na2.50 Mn1.75 U6 F30: Structures, optical and magnetic properties
;
loop_
_citation_id
_citation_journal_full
_citation_year
_citation_journal_volume
_citation_page_first
_citation_page_last
_citation_journal_id_ASTM
primary 'Journal of Solid State Chemistry' 2016 236 83 88 JSSCBI
loop_
_publ_author_name
'Yeon, Jeongho'
'Smith, Mark D.'
'Tapp, Joshua'
'Moeller, Angela'
'zur Loye, Hans-Conrad'
_cell_length_a 9.8578(3)
_cell_length_b 9.8578(3)
_cell_length_c 13.1920(8)
_cell_angle_alpha 90
_cell_angle_beta 90
_cell_angle_gamma 120
_cell_volume 1110.2
_cell_formula_units_Z 2
_symmetry_space_group_name_H-M 'P -3 c 1'
_symmetry_Int_Tables_number 165
_refine_ls_R_factor_all 0.0307
loop_
_symmetry_equiv_pos_site_id
_symmetry_equiv_pos_as_xyz
1 'x-y, -y, -z+1/2'
2 '-x, -x+y, -z+1/2'
3 'y, x, -z+1/2'
4 'x-y, x, -z'
5 'y, -x+y, -z'
6 '-x, -y, -z'
7 '-x+y, y, z+1/2'
8 'x, x-y, z+1/2'
9 '-y, -x, z+1/2'
10 '-x+y, -x, z'
11 '-y, x-y, z'
12 'x, y, z'
loop_
_atom_type_symbol
_atom_type_oxidation_number
U4+ 4
Mn2+ 2
Na1+ 1
Mn2+ 2
Na1+ 1
F1- -1
loop_
_atom_site_label
_atom_site_type_symbol
_atom_site_symmetry_multiplicity
_atom_site_Wyckoff_symbol
_atom_site_fract_x
_atom_site_fract_y
_atom_site_fract_z
_atom_site_B_iso_or_equiv
_atom_site_occupancy
_atom_site_attached_hydrogens
U1 U4+ 12 g 0.39955(2) 0.32348(2) 0.39840(2) 0.00687(6) 1 0
Mn1 Mn2+ 2 a 0. 0. 0.25 0.0077(3) 1 0
Na1 Na1+ 4 d 0.3333 0.6667 0.34528(17) 0.0087(8) 0.627(17) 0
Mn2 Mn2+ 4 d 0.3333 0.6667 0.34528(17) 0.0087(8) 0.373(17) 0
Na2 Na1+ 2 b 0. 0. 0.5 0.0198(12) 1 0
Na3 Na1+ 12 g 0.043(7) 0.357(7) 0.289(4) 0.013(10) 0.0417 0
F1 F1- 12 g 0.3116(4) 0.4451(4) 0.2835(3) 0.0147(6) 1 0
F2 F1- 12 g 0.1920(4) 0.3135(4) 0.4805(2) 0.0106(6) 1 0
F3 F1- 12 g 0.5358(4) 0.4136(4) 0.5513(3) 0.0116(6) 1 0
F4 F1- 12 g 0.1921(4) 0.1113(4) 0.3439(3) 0.0129(6) 1 0
F5 F1- 12 g 0.5119(4) 0.1706(4) 0.3644(3) 0.0116(6) 1 0
loop_
_atom_site_aniso_label
_atom_site_aniso_type_symbol
_atom_site_aniso_U_11
_atom_site_aniso_U_22
_atom_site_aniso_U_33
_atom_site_aniso_U_12
_atom_site_aniso_U_13
_atom_site_aniso_U_23
U1 U4+ 0.00667(9) 0.00710(9) 0.00693(9) 0.00351(6) -0.00007(5) 0.00019(5)
Mn1 Mn2+ 0.0078(5) 0.0078(5) 0.0075(7) 0.0039(2) 0. 0.
Na1 Na1+ 0.0066(9) 0.0066(9) 0.0130(12) 0.0033(4) 0. 0.
Mn2 Mn2+ 0.0066(9) 0.0066(9) 0.0130(12) 0.0033(4) 0. 0.
Na2 Na1+ 0.024(2) 0.024(2) 0.011(3) 0.0121(10) 0. 0.
F1 F1- 0.0173(16) 0.0189(16) 0.0084(14) 0.0094(14) -0.0015(12) 0.0030(12)
F2 F1- 0.0091(13) 0.0121(14) 0.0109(14) 0.0056(11) 0.0019(11) 0.0017(11)
F3 F1- 0.0123(14) 0.0117(14) 0.0103(14) 0.0056(12) -0.0007(12) -0.0015(11)
F4 F1- 0.0110(14) 0.0118(15) 0.0142(15) 0.0045(12) -0.0044(11) -0.0007(12)
F5 F1- 0.0127(14) 0.0139(15) 0.0113(14) 0.0090(12) 0.0004(11) -0.0001(12)
#End of TTdata_429362-ICSD