
#(C) 2019 by FIZ Karlsruhe - Leibniz Institute for Information Infrastructure.  All rights reserved.
data_429827-ICSD
_database_code_ICSD 429827
_audit_creation_date 2016-08-01
_chemical_name_systematic 'Barium sodium iron(II) vanadate(V)'
_chemical_formula_structural 'Ba Na2 Fe (V O4)2'
_chemical_formula_sum 'Ba1 Fe1 Na2 O8 V2'
_chemical_name_structure_type K3Na(SO4)2
_exptl_crystal_density_diffrn 4.08
_cell_measurement_temperature 293.
_publ_section_title

;
Hydrothermal synthesis of single crystals of transition metal vanadates in the
glaserite phase
;
loop_
_citation_id
_citation_journal_full
_citation_year
_citation_journal_volume
_citation_page_first
_citation_page_last
_citation_journal_id_ASTM
primary 'Journal of Solid State Chemistry' 2016 236 61 68 JSSCBI
loop_
_publ_author_name
'Sanjeewa, Liurukara D.'
'McMillen, Colin D.'
'Willett, Daniel'
'Chumanov, George'
'Kolis, Joseph W.'
_cell_length_a 5.5731(8)
_cell_length_b 5.5731(8)
_cell_length_c 7.1034(14)
_cell_angle_alpha 90.
_cell_angle_beta 90.
_cell_angle_gamma 120.
_cell_volume 191.06
_cell_formula_units_Z 1
_symmetry_space_group_name_H-M 'P -3 m 1'
_symmetry_Int_Tables_number 164
_refine_ls_R_factor_all 0.0322
loop_
_symmetry_equiv_pos_site_id
_symmetry_equiv_pos_as_xyz
1 'x-y, -y, -z'
2 '-x, -x+y, -z'
3 'y, x, -z'
4 'x-y, x, -z'
5 'y, -x+y, -z'
6 '-x, -y, -z'
7 '-x+y, y, z'
8 'x, x-y, z'
9 '-y, -x, z'
10 '-x+y, -x, z'
11 '-y, x-y, z'
12 'x, y, z'
loop_
_atom_type_symbol
_atom_type_oxidation_number
Ba2+ 2
Fe2+ 2
V5+ 5
O2- -2
Na1+ 1
loop_
_atom_site_label
_atom_site_type_symbol
_atom_site_symmetry_multiplicity
_atom_site_Wyckoff_symbol
_atom_site_fract_x
_atom_site_fract_y
_atom_site_fract_z
_atom_site_B_iso_or_equiv
_atom_site_occupancy
_atom_site_attached_hydrogens
Ba1 Ba2+ 1 a 0. 0. 0. 0.0208(7) 1 0
Fe1 Fe2+ 1 b 0. 0. 0.5 0.0153(8) 1 0
V1 V5+ 2 d -0.6667 0.6667 -0.2337(3) 0.0116(7) 1 0
O1 O2- 2 d -0.3333 0.3333 -0.0018(16) 0.028(3) 1 0
O2 O2- 6 i 0.3393(17) 0.1696(8) 0.3168(10) 0.068(4) 1 0
Na1 Na1+ 2 d -0.3333 0.3333 -0.3316(9) 0.0227(16) 1 0
loop_
_atom_site_aniso_label
_atom_site_aniso_type_symbol
_atom_site_aniso_U_11
_atom_site_aniso_U_22
_atom_site_aniso_U_33
_atom_site_aniso_U_12
_atom_site_aniso_U_13
_atom_site_aniso_U_23
Ba1 Ba2+ 0.0256(8) 0.0256(8) 0.0112(8) 0.0128(4) 0. 0.
Fe1 Fe2+ 0.0152(11) 0.0152(11) 0.0154(15) 0.0076(5) 0. 0.
V1 V5+ 0.0128(9) 0.0128(9) 0.0092(12) 0.0064(5) 0. 0.
O1 O2- 0.036(5) 0.036(5) 0.013(5) 0.018(2) 0. 0.
O2 O2- 0.012(4) 0.129(8) 0.025(4) 0.0059(19) 0.003(3) 0.0016(16)
Na1 Na1+ 0.025(2) 0.025(2) 0.019(3) 0.0123(11) 0. 0.
#End of TTdata_429827-ICSD