
#(C) 2019 by FIZ Karlsruhe - Leibniz Institute for Information Infrastructure.  All rights reserved.
data_429828-ICSD
_database_code_ICSD 429828
_audit_creation_date 2016-08-01
_chemical_name_systematic 'Barium sodium manganese(II) vanadate(V)'
_chemical_formula_structural 'Ba Na2 Mn (V O4)2'
_chemical_formula_sum 'Ba1 Mn1 Na2 O8 V2'
_exptl_crystal_density_diffrn 4.01
_cell_measurement_temperature 293.
_publ_section_title

;
Hydrothermal synthesis of single crystals of transition metal vanadates in the
glaserite phase
;
loop_
_citation_id
_citation_journal_full
_citation_year
_citation_journal_volume
_citation_page_first
_citation_page_last
_citation_journal_id_ASTM
primary 'Journal of Solid State Chemistry' 2016 236 61 68 JSSCBI
loop_
_publ_author_name
'Sanjeewa, Liurukara D.'
'McMillen, Colin D.'
'Willett, Daniel'
'Chumanov, George'
'Kolis, Joseph W.'
_cell_length_a 5.5921(8)
_cell_length_b 5.5921(8)
_cell_length_c 7.1628(14)
_cell_angle_alpha 90.
_cell_angle_beta 90.
_cell_angle_gamma 120.
_cell_volume 193.98
_cell_formula_units_Z 1
_symmetry_space_group_name_H-M 'P -3 m 1'
_symmetry_Int_Tables_number 164
_refine_ls_R_factor_all 0.0258
loop_
_symmetry_equiv_pos_site_id
_symmetry_equiv_pos_as_xyz
1 'x-y, -y, -z'
2 '-x, -x+y, -z'
3 'y, x, -z'
4 'x-y, x, -z'
5 'y, -x+y, -z'
6 '-x, -y, -z'
7 '-x+y, y, z'
8 'x, x-y, z'
9 '-y, -x, z'
10 '-x+y, -x, z'
11 '-y, x-y, z'
12 'x, y, z'
loop_
_atom_type_symbol
_atom_type_oxidation_number
Mn2+ 2
V5+ 5
O2- -2
Ba2+ 2
Na1+ 1
O2- -2
loop_
_atom_site_label
_atom_site_type_symbol
_atom_site_symmetry_multiplicity
_atom_site_Wyckoff_symbol
_atom_site_fract_x
_atom_site_fract_y
_atom_site_fract_z
_atom_site_B_iso_or_equiv
_atom_site_occupancy
_atom_site_attached_hydrogens
Mn1 Mn2+ 1 a 0. 0. 0. 0.0101(7) 1 0
V1 V5+ 2 d 0.6667 0.3333 0.2674(3) 0.0103(6) 1 0
O1 O2- 2 d 0.6667 0.3333 0.5022(12) 0.022(2) 1 0
Ba1 Ba2+ 1 b 0. 0. 0.5 0.0199(6) 1 0
Na1 Na1+ 2 d 0.3333 0.6667 0.1708(8) 0.0188(12) 1 0
O2 O2- 12 j 0.226(4) 0.330(4) -0.201(3) 0.010(5) 0.25 0
O3 O2- 12 j 0.110(5) 0.354(5) -0.171(3) 0.014(6) 0.25 0
loop_
_atom_site_aniso_label
_atom_site_aniso_type_symbol
_atom_site_aniso_U_11
_atom_site_aniso_U_22
_atom_site_aniso_U_33
_atom_site_aniso_U_12
_atom_site_aniso_U_13
_atom_site_aniso_U_23
Mn1 Mn2+ 0.0103(9) 0.0103(9) 0.0099(11) 0.0051(4) 0. 0.
V1 V5+ 0.0101(7) 0.0101(7) 0.0106(10) 0.0051(4) 0. 0.
O1 O2- 0.025(3) 0.025(3) 0.014(4) 0.0127(16) 0. 0.
Ba1 Ba2+ 0.0245(7) 0.0245(7) 0.0107(7) 0.0123(3) 0. 0.
Na1 Na1+ 0.0183(16) 0.0183(16) 0.020(3) 0.0091(8) 0. 0.
O2 O2- 0.010(6) 0.009(5) 0.010(5) 0.004(3) 0.000(2) 0.000(2)
O3 O2- 0.015(6) 0.014(6) 0.013(6) 0.007(3) 0.000(2) 0.001(2)
#End of TTdata_429828-ICSD