
#(C) 2019 by FIZ Karlsruhe - Leibniz Institute for Information Infrastructure.  All rights reserved.
data_429802-ICSD
_database_code_ICSD 429802
_audit_creation_date 2016-02-01
_chemical_name_systematic
'Disodium trizinc tetrakis(trioxoselenate(IV)) dihydrate'
_chemical_formula_structural 'Na2 Zn3 (Se O3)4 (H2 O)2'
_chemical_formula_sum 'H4 Na2 O14 Se4 Zn3'
_exptl_crystal_density_diffrn 3.59
_cell_measurement_temperature 293.
_publ_section_title

;
Hydrothermal synthesis, structures and optical properties of A2 Zn3 (Se O3)4 *
X(H2 O) (A=Li, Na, K; X=2 or 0)
;
loop_
_citation_id
_citation_journal_full
_citation_year
_citation_journal_volume
_citation_page_first
_citation_page_last
_citation_journal_id_ASTM
primary 'Journal of Solid State Chemistry' 2015 232 193 199 JSSCBI
loop_
_publ_author_name
'Liu, Yunsheng'
'Mei, Dajiang'
'Xu, Jingli'
'Wu, Yuandong'
_cell_length_a 15.7940(18)
_cell_length_b 6.5744(8)
_cell_length_c 14.6787(17)
_cell_angle_alpha 90.
_cell_angle_beta 107.396(3)
_cell_angle_gamma 90.
_cell_volume 1454.46
_cell_formula_units_Z 4
_symmetry_space_group_name_H-M 'C 1 2/c 1'
_symmetry_Int_Tables_number 15
_refine_ls_R_factor_all 0.0268
loop_
_symmetry_equiv_pos_site_id
_symmetry_equiv_pos_as_xyz
1 'x, -y, z+1/2'
2 '-x, -y, -z'
3 '-x, y, -z+1/2'
4 'x, y, z'
5 'x+1/2, -y+1/2, z+1/2'
6 '-x+1/2, -y+1/2, -z'
7 '-x+1/2, y+1/2, -z+1/2'
8 'x+1/2, y+1/2, z'
loop_
_atom_type_symbol
_atom_type_oxidation_number
Se4+ 4
Zn2+ 2
Na1+ 1
O2- -2
H1+ 1
O2- -2
loop_
_atom_site_label
_atom_site_type_symbol
_atom_site_symmetry_multiplicity
_atom_site_Wyckoff_symbol
_atom_site_fract_x
_atom_site_fract_y
_atom_site_fract_z
_atom_site_B_iso_or_equiv
_atom_site_occupancy
_atom_site_attached_hydrogens
Se1 Se4+ 8 f 0.10682(2) 0.17602(5) 0.10867(2) 0.01964(9) 1. 0
Se2 Se4+ 8 f 0.35314(2) 0.12441(5) 0.22178(2) 0.02060(9) 1. 0
Zn1 Zn2+ 8 f 0.48799(3) 0.33665(5) 0.11847(3) 0.02104(10) 1. 0
Zn2 Zn2+ 4 e 0 0.32996(7) 0.25 0.01985(12) 1. 0
Na1 Na1+ 8 f 0.10640(10) 0.3609(2) 0.49133(10) 0.0317(3) 1. 0
O1 O2- 8 f 0.01579(15) 0.1368(3) 0.14952(16) 0.0231(5) 1. 0
O2 O2- 8 f 0.06006(15) 0.3002(3) 0.00607(15) 0.0278(6) 1. 0
O3 O2- 8 f 0.11337(18) 0.0619(4) 0.5762(2) 0.0404(7) 1. 0
O4 O2- 8 f 0.12386(15) 0.4170(3) 0.33454(16) 0.0251(5) 1. 0
O5 O2- 8 f 0.25290(18) 0.0944(4) 0.4077(2) 0.0561(9) 1. 0
H1 H1+ 8 f 0.2133 0.0143 0.3904 0.084 1. 0
H2 H1+ 8 f 0.2324 0.205 0.3834 0.084 1. 0
O6 O2- 8 f 0.38479(16) 0.3248(3) 0.16893(18) 0.0285(5) 1. 0
O7 O2- 8 f 0.44041(15) 0.0941(3) 0.32119(16) 0.0258(5) 1. 0
loop_
_atom_site_aniso_label
_atom_site_aniso_type_symbol
_atom_site_aniso_U_11
_atom_site_aniso_U_22
_atom_site_aniso_U_33
_atom_site_aniso_U_12
_atom_site_aniso_U_13
_atom_site_aniso_U_23
Se1 Se4+ 0.01938(17) 0.01733(15) 0.02058(16) -0.00105(12) 0.00352(12)
-0.00116(12)
Se2 Se4+ 0.01671(16) 0.01986(16) 0.02497(17) 0.00123(12) 0.00581(12) 0.00121(13)
Zn1 Zn2+ 0.0257(2) 0.01473(18) 0.0225(2) -0.00030(14) 0.00698(15) 0.00009(14)
Zn2 Zn2+ 0.0211(3) 0.0200(3) 0.0177(3) 0. 0.0046(2) 0.
Na1 Na1+ 0.0366(8) 0.0240(7) 0.0326(8) -0.0038(6) 0.0076(6) 0.0033(6)
O1 O2- 0.0304(13) 0.0197(11) 0.0227(12) -0.0070(9) 0.0132(10) -0.0050(9)
O2 O2- 0.0368(15) 0.0257(13) 0.0184(12) -0.0056(10) 0.0042(10) 0.0026(9)
O3 O2- 0.0459(17) 0.0210(13) 0.0546(18) -0.0060(12) 0.0156(14) 0.0089(12)
O4 O2- 0.0270(13) 0.0200(11) 0.0251(12) -0.0007(9) 0.0032(10) 0.0032(9)
O5 O2- 0.0353(16) 0.0282(15) 0.089(2) -0.0080(12) -0.0061(16) 0.0041(16)
O6 O2- 0.0319(14) 0.0195(11) 0.0364(14) 0.0044(10) 0.0139(11) 0.0076(10)
O7 O2- 0.0269(13) 0.0214(11) 0.0237(12) -0.0027(9) -0.0006(10) -0.0005(9)
#End of TTdata_429802-ICSD