
#(C) 2019 by FIZ Karlsruhe - Leibniz Institute for Information Infrastructure.  All rights reserved.
data_430157-ICSD
_database_code_ICSD 430157
_audit_creation_date 2017-08-01
_chemical_name_systematic 'Pentasodium bis(disulfidocobaltate(II)) bromide'
_chemical_formula_structural 'Na5 (Co S2)2 Br'
_chemical_formula_sum 'Br1 Co2 Na5 S4'
_chemical_name_structure_type Na6PbO5
_exptl_crystal_density_diffrn 2.8
_cell_measurement_temperature 293.
_publ_section_title

;
Synthesis, crystal and electronic structure of the new sodium chain sulfido
cobaltates(II), Na3CoS3 and Na5[CoS2]2(Br)
;
loop_
_citation_id
_citation_journal_full
_citation_year
_citation_journal_volume
_citation_page_first
_citation_page_last
_citation_journal_id_ASTM
primary 'Zeitschrift fuer Naturforschung, B: A Journal of Chemical Sciences'
2016 71 1177 1189 ZNBSEN
loop_
_publ_author_name
'Stueble, Pirmin'
'Kaegi, Jan P.'
'Roehr, Caroline'
_cell_length_a 9.1458(7)
_cell_length_b 9.1458(7)
_cell_length_c 6.2559(5)
_cell_angle_alpha 90
_cell_angle_beta 90
_cell_angle_gamma 90
_cell_volume 523.27
_cell_formula_units_Z 2
_symmetry_space_group_name_H-M 'I 4 m m'
_symmetry_Int_Tables_number 107
_refine_ls_R_factor_all 0.0412
loop_
_symmetry_equiv_pos_site_id
_symmetry_equiv_pos_as_xyz
1 '-y, x, z'
2 'y, -x, z'
3 '-y, -x, z'
4 'y, x, z'
5 'x, -y, z'
6 '-x, y, z'
7 '-x, -y, z'
8 'x, y, z'
9 '-y+1/2, x+1/2, z+1/2'
10 'y+1/2, -x+1/2, z+1/2'
11 '-y+1/2, -x+1/2, z+1/2'
12 'y+1/2, x+1/2, z+1/2'
13 'x+1/2, -y+1/2, z+1/2'
14 '-x+1/2, y+1/2, z+1/2'
15 '-x+1/2, -y+1/2, z+1/2'
16 'x+1/2, y+1/2, z+1/2'
loop_
_atom_type_symbol
_atom_type_oxidation_number
Na1+ 1
Co2+ 2
S2- -2
Br1- -1
loop_
_atom_site_label
_atom_site_type_symbol
_atom_site_symmetry_multiplicity
_atom_site_Wyckoff_symbol
_atom_site_fract_x
_atom_site_fract_y
_atom_site_fract_z
_atom_site_B_iso_or_equiv
_atom_site_occupancy
_atom_site_attached_hydrogens
Na1 Na1+ 8 c 0.2166(4) 0.2166(4) 0.3606(15) 0.0355(12) 1 0
Na2 Na1+ 2 a 0. 0. 0. 0.025(2) 1 0
Co1 Co2+ 4 b 0. 0.5 0.3065(13) 0.0185(5) 1 0
S1 S2- 8 d 0.3098(2) 0. 0.0573(15) 0.0189(6) 1 0
Br1 Br1- 2 a 0. 0. 0.5347(14) 0.0374(7) 1 0
loop_
_atom_site_aniso_label
_atom_site_aniso_type_symbol
_atom_site_aniso_U_11
_atom_site_aniso_U_22
_atom_site_aniso_U_33
_atom_site_aniso_U_12
_atom_site_aniso_U_13
_atom_site_aniso_U_23
Na1 Na1+ 0.0350(15) 0.0350(15) 0.037(3) 0.0099(19) -0.0113(15) -0.0113(15)
Na2 Na1+ 0.024(2) 0.024(2) 0.027(6) 0. 0. 0.
Co1 Co2+ 0.0192(10) 0.0173(9) 0.0191(9) 0. 0. 0.
S1 S2- 0.0168(8) 0.0214(9) 0.0185(10) 0. -0.0001(10) 0.
Br1 Br1- 0.0430(8) 0.0430(8) 0.0263(12) 0. 0. 0.
#End of TTdata_430157-ICSD