
#(C) 2019 by FIZ Karlsruhe - Leibniz Institute for Information Infrastructure.  All rights reserved.
data_430197-ICSD
_database_code_ICSD 430197
_audit_creation_date 2016-08-01
_chemical_name_systematic 'Sodium ytterbium silicate'
_chemical_formula_structural 'Na Yb Si O4'
_chemical_formula_sum 'Na1 O4 Si1 Yb1'
_chemical_name_structure_type Olivine-Mg2SiO4
_exptl_crystal_density_diffrn 5.35
_cell_measurement_temperature 296.
_publ_section_title

;
Influence of rare earth cation size on the crystal structure in rare earth
silicates, Na2 RE Si O4 (O H) (RE = Sc, Yb) and Na RE Si O4 (RE = La, Yb)
;
loop_
_citation_id
_citation_journal_full
_citation_year
_citation_journal_volume
_citation_page_first
_citation_page_last
_citation_journal_id_ASTM
primary 'Solid State Sciences' 2016 51 59 65 SSSCFJ
loop_
_publ_author_name
'Latshaw, Allison M.'
'Wilkins, Branford O.'
'Chance, W. Michael'
'Smith, Mark D.'
'zur Loye, Hans-Conrad'
_cell_length_a 11.0329(3)
_cell_length_b 6.3536(2)
_cell_length_c 5.1054(2)
_cell_angle_alpha 90
_cell_angle_beta 90
_cell_angle_gamma 90
_cell_volume 357.88
_cell_formula_units_Z 4
_symmetry_space_group_name_H-M 'P n m a'
_symmetry_Int_Tables_number 62
_refine_ls_R_factor_all 0.0217
loop_
_symmetry_equiv_pos_site_id
_symmetry_equiv_pos_as_xyz
1 'x+1/2, y, -z+1/2'
2 'x, -y+1/2, z'
3 '-x+1/2, y+1/2, z+1/2'
4 '-x, -y, -z'
5 '-x+1/2, -y, z+1/2'
6 '-x, y+1/2, -z'
7 'x+1/2, -y+1/2, -z+1/2'
8 'x, y, z'
loop_
_atom_type_symbol
_atom_type_oxidation_number
Yb3+ 3
Si4+ 4
Na1+ 1
O2- -2
loop_
_atom_site_label
_atom_site_type_symbol
_atom_site_symmetry_multiplicity
_atom_site_Wyckoff_symbol
_atom_site_fract_x
_atom_site_fract_y
_atom_site_fract_z
_atom_site_B_iso_or_equiv
_atom_site_occupancy
_atom_site_attached_hydrogens
Yb1 Yb3+ 4 c 0.21978(2) 0.25 0.50036(4) 0.00677(9) 1 0
Si1 Si4+ 4 c 0.39952(13) 0.25 0.0596(2) 0.0058(2) 1 0
Na1 Na1+ 4 a 0. 0. 0. 0.0132(4) 1 0
O1 O2- 8 d 0.3274(2) 0.0514(4) 0.2018(5) 0.0087(4) 1 0
O2 O2- 4 c 0.0384(3) 0.25 0.3361(7) 0.0091(6) 1 0
O3 O2- 4 c 0.3860(3) 0.25 0.7457(6) 0.0087(6) 1 0
loop_
_atom_site_aniso_label
_atom_site_aniso_type_symbol
_atom_site_aniso_U_11
_atom_site_aniso_U_22
_atom_site_aniso_U_33
_atom_site_aniso_U_12
_atom_site_aniso_U_13
_atom_site_aniso_U_23
Yb1 Yb3+ 0.00604(11) 0.00694(11) 0.00732(11) 0. 0.00005(6) 0.
Si1 Si4+ 0.0053(5) 0.0072(5) 0.0050(5) 0. 0.0000(4) 0.
Na1 Na1+ 0.0136(9) 0.0130(10) 0.0130(9) 0.0036(8) 0.0002(7) -0.0014(7)
O1 O2- 0.0084(10) 0.0073(10) 0.0104(10) -0.0007(9) 0.0021(8) -0.0012(8)
O2 O2- 0.0066(15) 0.0122(16) 0.0085(15) 0. 0.0002(11) 0.
O3 O2- 0.0079(15) 0.0116(16) 0.0066(14) 0. -0.0003(11) 0.
#End of TTdata_430197-ICSD