
#(C) 2019 by FIZ Karlsruhe - Leibniz Institute for Information Infrastructure.  All rights reserved.
data_430379-ICSD
_database_code_ICSD 430379
_audit_creation_date 2018-08-01
_chemical_name_systematic 'Disodium dipotassium copper(II) tris(molybdate)'
_chemical_formula_structural 'Na2 K2 Cu (Mo O4)3'
_chemical_formula_sum 'Cu1 K2 Mo3 Na2 O12'
_exptl_crystal_density_diffrn 3.67
_cell_measurement_temperature 298.
_publ_section_title 'Electrical and vibrational studies of Na2K2Cu(MoO4)3'
loop_
_citation_id
_citation_journal_full
_citation_year
_citation_journal_volume
_citation_page_first
_citation_page_last
_citation_journal_id_ASTM
primary 'Advances in Materials Science and Engineering' 2017 2017 6123628-1
6123628-8 AMSEDL
loop_
_publ_author_name
'Dridi, Wassim'
'Zid, Mohamed Faouzi'
'Maczka, Miroslaw'
_cell_length_a 7.4946(8)
_cell_length_b 9.3428(9)
_cell_length_c 9.3619(9)
_cell_angle_alpha 92.591(7)
_cell_angle_beta 105.247(9)
_cell_angle_gamma 105.496(9)
_cell_volume 604.74
_cell_formula_units_Z 2
_symmetry_space_group_name_H-M 'P -1'
_symmetry_Int_Tables_number 2
_refine_ls_R_factor_all 0.0215
loop_
_symmetry_equiv_pos_site_id
_symmetry_equiv_pos_as_xyz
1 '-x, -y, -z'
2 'x, y, z'
loop_
_atom_type_symbol
_atom_type_oxidation_number
Mo6+ 6
Cu2+ 2
K1+ 1
Na1+ 1
O2- -2
loop_
_atom_site_label
_atom_site_type_symbol
_atom_site_symmetry_multiplicity
_atom_site_Wyckoff_symbol
_atom_site_fract_x
_atom_site_fract_y
_atom_site_fract_z
_atom_site_B_iso_or_equiv
_atom_site_occupancy
_atom_site_attached_hydrogens
Mo1 Mo6+ 2 i 0.11343(5) 0.63048(3) 0.83287(3) 0.01208(9) 1 0
Mo2 Mo6+ 2 i 0.23810(5) 0.19879(3) 0.75286(3) 0.01240(9) 1 0
Mo3 Mo6+ 2 i 0.37478(5) 0.14221(3) 0.38721(3) 0.01174(9) 1 0
Cu1 Cu2+ 2 i 0.12635(7) 0.87708(5) 0.55589(5) 0.01281(11) 1 0
K1 K1+ 1 d 0.5 0 0 0.0226(3) 1 0
K2 K1+ 2 i 0.25690(14) 0.50303(10) 0.51451(11) 0.0254(2) 1 0
K3 K1+ 1 a 0 0 0 0.0303(3) 1 0
Na1 Na1+ 2 i 0.6281(2) 0.55299(17) 0.87900(17) 0.0183(3) 1 0
Na2 Na1+ 2 i 0.2380(2) 0.76054(17) 0.23645(17) 0.0193(3) 1 0
O1 O2- 2 i 0.3738(4) 0.3212(3) 0.3409(3) 0.0190(6) 1 0
O2 O2- 2 i 0.3057(4) 0.5530(4) 0.8724(4) 0.0274(7) 1 0
O3 O2- 2 i 0.3915(4) 0.8405(3) 0.4981(3) 0.0199(6) 1 0
O4 O2- 2 i 0.1844(4) 0.0745(3) 0.4742(3) 0.0163(5) 1 0
O5 O2- 2 i 0.1590(5) 0.7767(3) 0.9719(3) 0.0253(7) 1 0
O6 O2- 2 i 0.1046(4) 0.5050(3) 0.1801(3) 0.0186(6) 1 0
O7 O2- 2 i 0.3249(4) 0.0249(3) 0.2227(3) 0.0209(6) 1 0
O8 O2- 2 i 0.2528(5) 0.2373(3) 0.9387(3) 0.0255(7) 1 0
O9 O2- 2 i 0.0925(4) 0.6930(3) 0.6518(3) 0.0183(6) 1 0
O10 O2- 2 i 0.2291(4) 0.0047(3) 0.7450(3) 0.0197(6) 1 0
O11 O2- 2 i 0.4486(4) 0.3125(3) 0.7206(3) 0.0210(6) 1 0
O12 O2- 2 i 0.9762(4) 0.7628(3) 0.3561(3) 0.0157(5) 1 0
loop_
_atom_site_aniso_label
_atom_site_aniso_type_symbol
_atom_site_aniso_U_11
_atom_site_aniso_U_22
_atom_site_aniso_U_33
_atom_site_aniso_U_12
_atom_site_aniso_U_13
_atom_site_aniso_U_23
Mo1 Mo6+ 0.01271(17) 0.01134(15) 0.01108(15) 0.00107(12) 0.00394(12) 0.00148(11)
Mo2 Mo6+ 0.01240(17) 0.01162(16) 0.01181(16) 0.00179(12) 0.00272(12) 0.00243(11)
Mo3 Mo6+ 0.01247(16) 0.01126(15) 0.01090(15) 0.00114(12) 0.00464(12) 0.00143(11)
Cu1 Cu2+ 0.0153(2) 0.0108(2) 0.0112(2) 0.00210(17) 0.00348(18) 0.00181(16)
K1 K1+ 0.0174(6) 0.0313(7) 0.0167(6) 0.0038(5) 0.0033(5) 0.0082(5)
K2 K1+ 0.0225(5) 0.0245(4) 0.0253(5) 0.0031(4) 0.0051(4) -0.0036(4)
K3 K1+ 0.0266(7) 0.0292(7) 0.0334(7) 0.0068(6) 0.0056(6) 0.0106(6)
Na1 Na1+ 0.0193(8) 0.0191(8) 0.0166(7) 0.0050(6) 0.0064(6) 0.0012(6)
Na2 Na1+ 0.0261(9) 0.0149(7) 0.0169(7) 0.0040(6) 0.0082(7) 0.0009(6)
O1 O2- 0.0233(15) 0.0140(13) 0.0214(14) 0.0045(11) 0.0099(12) 0.0044(11)
O2 O2- 0.0170(15) 0.0357(17) 0.0328(17) 0.0118(14) 0.0072(13) 0.0120(14)
O3 O2- 0.0166(14) 0.0246(14) 0.0177(13) 0.0043(12) 0.0057(11) 0.0003(11)
O4 O2- 0.0171(14) 0.0131(12) 0.0198(13) 0.0032(11) 0.0081(11) 0.0043(10)
O5 O2- 0.0370(19) 0.0180(14) 0.0176(14) -0.0003(13) 0.0110(13) 0.0000(11)
O6 O2- 0.0151(14) 0.0174(13) 0.0239(14) 0.0021(11) 0.0090(12) 0.0034(11)
O7 O2- 0.0284(16) 0.0176(14) 0.0153(13) 0.0025(12) 0.0082(12) 0.0007(11)
O8 O2- 0.0364(19) 0.0228(15) 0.0137(13) 0.0042(13) 0.0061(13) 0.0003(11)
O9 O2- 0.0257(16) 0.0138(13) 0.0154(13) 0.0039(11) 0.0074(12) 0.0034(10)
O10 O2- 0.0280(16) 0.0118(12) 0.0141(13) 0.0039(11) -0.0009(12) 0.0016(10)
O11 O2- 0.0126(13) 0.0159(13) 0.0301(16) -0.0019(11) 0.0061(12) -0.0027(11)
O12 O2- 0.0132(13) 0.0155(13) 0.0156(13) 0.0025(11) 0.0018(11) -0.0026(10)
#End of TTdata_430379-ICSD