
#(C) 2019 by FIZ Karlsruhe - Leibniz Institute for Information Infrastructure.  All rights reserved.
data_430347-ICSD
_database_code_ICSD 430347
_audit_creation_date 2016-08-01
_chemical_name_systematic 'Pentasodium tetraneodymium fluoride tetragermanate'
_chemical_formula_structural 'Na5 Nd4 F (Ge O4)4'
_chemical_formula_sum 'F1 Ge4 Na5 Nd4 O16'
_chemical_name_structure_type (NaYSiO4)4NaF
_exptl_crystal_density_diffrn 5.06
_cell_measurement_temperature 293.
_publ_section_title

;
A5 RE4 X [T O4]4 crystal growth: Fluoride flux synthesis of Na5 Ln4 F [Ge O4]4
(Ln=Pr, Nd), the first quaternary germanate oxyfluorides
;
loop_
_citation_id
_citation_journal_full
_citation_year
_citation_journal_volume
_citation_page_first
_citation_page_last
_citation_journal_id_ASTM
primary 'Journal of Solid State Chemistry' 2016 239 200 203 JSSCBI
loop_
_publ_author_name
'Latshaw, Allison M.'
'Wilkins, Branford O.'
'Morrison, Gregory'
'Smith, Mark D.'
'zur Loye, Hans-Conrad'
_cell_length_a 12.0642(17)
_cell_length_b 12.0642(17)
_cell_length_c 5.6674(11)
_cell_angle_alpha 90
_cell_angle_beta 90
_cell_angle_gamma 90
_cell_volume 824.86
_cell_formula_units_Z 2
_symmetry_space_group_name_H-M 'I -4'
_symmetry_Int_Tables_number 82
_refine_ls_R_factor_all 0.0209
loop_
_symmetry_equiv_pos_site_id
_symmetry_equiv_pos_as_xyz
1 '-y, x, -z'
2 'y, -x, -z'
3 '-x, -y, z'
4 'x, y, z'
5 '-y+1/2, x+1/2, -z+1/2'
6 'y+1/2, -x+1/2, -z+1/2'
7 '-x+1/2, -y+1/2, z+1/2'
8 'x+1/2, y+1/2, z+1/2'
loop_
_atom_type_symbol
_atom_type_oxidation_number
Na1+ 1
Nd3+ 3
Ge4+ 4
F1- -1
O2- -2
loop_
_atom_site_label
_atom_site_type_symbol
_atom_site_symmetry_multiplicity
_atom_site_Wyckoff_symbol
_atom_site_fract_x
_atom_site_fract_y
_atom_site_fract_z
_atom_site_B_iso_or_equiv
_atom_site_occupancy
_atom_site_attached_hydrogens
Na1 Na1+ 2 a 0.5 0.5 0.5 0.032(3) 1 0
Na2 Na1+ 8 g 0.0875(4) 0.6045(4) 0.4831(12) 0.0228(10) 1 0
Nd1 Nd3+ 8 g 0.61504(4) 0.68226(4) -0.02392(10) 0.00940(19) 1 0
Ge1 Ge4+ 8 g 0.39696(8) 0.74725(8) 0.4899(2) 0.0093(3) 1 0
F1 F1- 2 b 0.5 0.5 0. 0.017(3) 1 0
O1 O2- 8 g 0.4515(7) 0.6784(8) 0.7303(14) 0.0125(16) 1 0
O2 O2- 8 g 0.3921(6) 0.8903(6) 0.5275(17) 0.0149(17) 1 0
O3 O2- 8 g 0.4670(7) 0.7092(8) 0.2310(16) 0.0156(19) 1 0
O4 O2- 8 g 0.2601(6) 0.7032(7) 0.4249(15) 0.0124(17) 1 0
loop_
_atom_site_aniso_label
_atom_site_aniso_type_symbol
_atom_site_aniso_U_11
_atom_site_aniso_U_22
_atom_site_aniso_U_33
_atom_site_aniso_U_12
_atom_site_aniso_U_13
_atom_site_aniso_U_23
Na1 Na1+ 0.024(3) 0.024(3) 0.050(7) 0. 0. 0.
Na2 Na1+ 0.014(2) 0.016(2) 0.038(3) -0.0001(17) 0.002(3) -0.003(3)
Nd1 Nd3+ 0.0083(3) 0.0091(3) 0.0107(3) 0.0001(2) 0.0003(2) -0.0001(2)
Ge1 Ge4+ 0.0091(5) 0.0095(5) 0.0094(5) 0.0009(4) -0.0002(5) -0.0003(5)
F1 F1- 0.010(3) 0.010(3) 0.032(8) 0. 0. 0.
O1 O2- 0.009(4) 0.015(4) 0.014(4) -0.007(4) -0.003(3) 0.000(3)
O2 O2- 0.010(3) 0.006(3) 0.029(5) 0.001(3) -0.001(4) -0.003(4)
O3 O2- 0.007(4) 0.026(5) 0.014(4) -0.006(3) 0.003(3) -0.003(4)
O4 O2- 0.007(3) 0.017(4) 0.013(4) 0.003(3) 0.001(3) -0.008(3)
#End of TTdata_430347-ICSD