
#(C) 2019 by FIZ Karlsruhe - Leibniz Institute for Information Infrastructure.  All rights reserved.
data_430514-ICSD
_database_code_ICSD 430514
_audit_creation_date 2016-02-01
_chemical_name_systematic 'Sodium scandium hexaoxodigermanate'
_chemical_formula_structural 'Na Sc Ge2 O6'
_chemical_formula_sum 'Ge2 Na1 O6 Sc1'
_chemical_name_structure_type Pyroxene-CaMg(SiO3)2
_exptl_crystal_density_diffrn 4.39
_cell_measurement_temperature 293.
_cell_measurement_pressure 5000000.
_publ_section_title

;
High-pressure crystallography and compression behavior of the
alkali-scandium-germanate end-members LiScGe2O6 and NaScGe2O6
;
loop_
_citation_id
_citation_journal_full
_citation_year
_citation_journal_volume
_citation_page_first
_citation_page_last
_citation_journal_id_ASTM
primary 'Journal of Solid State Chemistry' 2015 229 188 196 JSSCBI
loop_
_publ_author_name
'Hofer, Gregor'
'Kuzel, Johann'
'Scheidl, Katharina S.'
'Redhammer, Guenther'
'Miletich, Ronald'
_cell_length_a 9.972(3)
_cell_length_b 8.965(3)
_cell_length_c 5.4386(11)
_cell_angle_alpha 90
_cell_angle_beta 105.859(18)
_cell_angle_gamma 90
_cell_volume 467.69
_cell_formula_units_Z 4
_symmetry_space_group_name_H-M 'C 1 2/c 1'
_symmetry_Int_Tables_number 15
_refine_ls_R_factor_all 0.0445
loop_
_symmetry_equiv_pos_site_id
_symmetry_equiv_pos_as_xyz
1 'x, -y, z+1/2'
2 '-x, -y, -z'
3 '-x, y, -z+1/2'
4 'x, y, z'
5 'x+1/2, -y+1/2, z+1/2'
6 '-x+1/2, -y+1/2, -z'
7 '-x+1/2, y+1/2, -z+1/2'
8 'x+1/2, y+1/2, z'
loop_
_atom_type_symbol
_atom_type_oxidation_number
Ge4+ 4
Sc3+ 3
Na1+ 1
O2- -2
loop_
_atom_site_label
_atom_site_type_symbol
_atom_site_symmetry_multiplicity
_atom_site_Wyckoff_symbol
_atom_site_fract_x
_atom_site_fract_y
_atom_site_fract_z
_atom_site_B_iso_or_equiv
_atom_site_occupancy
_atom_site_attached_hydrogens
Ge1 Ge4+ 8 f 0.21013(12) 0.40636(15) 0.25845(17) 0.0054(5) 1 0
Sc1 Sc3+ 4 e 0. 0.0983(4) 0.25 0.0049(7) 1 0
Na1 Na1+ 4 e 0. 0.6909(9) 0.25 0.0126(16) 1 0
O1 O2- 8 f 0.3889(9) 0.4181(10) 0.3615(12) 0.0077(15) 1 0
O2 O2- 8 f 0.1439(9) 0.2321(11) 0.1705(13) 0.0097(16) 1 0
O3 O2- 8 f 0.1390(8) 0.4751(11) 0.4985(12) 0.0076(15) 1 0
loop_
_atom_site_aniso_label
_atom_site_aniso_type_symbol
_atom_site_aniso_U_11
_atom_site_aniso_U_22
_atom_site_aniso_U_33
_atom_site_aniso_U_12
_atom_site_aniso_U_13
_atom_site_aniso_U_23
Ge1 Ge4+ 0.0027(11) 0.0086(12) 0.0040(5) -0.0012(4) -0.0003(5) -0.0006(5)
Sc1 Sc3+ 0.006(2) 0.004(3) 0.0044(9) 0. 0.0008(11) 0.
Na1 Na1+ 0.009(5) 0.016(7) 0.010(2) 0. -0.003(3) 0.
#End of TTdata_430514-ICSD