
#(C) 2019 by FIZ Karlsruhe - Leibniz Institute for Information Infrastructure.  All rights reserved.
data_430515-ICSD
_database_code_ICSD 430515
_audit_creation_date 2016-02-01
_chemical_name_systematic 'Sodium scandium hexaoxodigermanate'
_chemical_formula_structural 'Na Sc Ge2 O6'
_chemical_formula_sum 'Ge2 Na1 O6 Sc1'
_chemical_name_structure_type Pyroxene-CaMg(SiO3)2
_exptl_crystal_density_diffrn 4.15
_cell_measurement_temperature 571.
_cell_measurement_pressure 100.
_publ_section_title

;
High-pressure crystallography and compression behavior of the
alkali-scandium-germanate end-members LiScGe2O6 and NaScGe2O6
;
loop_
_citation_id
_citation_journal_full
_citation_year
_citation_journal_volume
_citation_page_first
_citation_page_last
_citation_journal_id_ASTM
primary 'Journal of Solid State Chemistry' 2015 229 188 196 JSSCBI
loop_
_publ_author_name
'Hofer, Gregor'
'Kuzel, Johann'
'Scheidl, Katharina S.'
'Redhammer, Guenther'
'Miletich, Ronald'
_cell_length_a 10.1678(5)
_cell_length_b 9.1583(5)
_cell_length_c 5.5672(3)
_cell_angle_alpha 90
_cell_angle_beta 107.257(3)
_cell_angle_gamma 90
_cell_volume 495.07
_cell_formula_units_Z 4
_symmetry_space_group_name_H-M 'C 1 2/c 1'
_symmetry_Int_Tables_number 15
_refine_ls_R_factor_all 0.0121
loop_
_symmetry_equiv_pos_site_id
_symmetry_equiv_pos_as_xyz
1 'x, -y, z+1/2'
2 '-x, -y, -z'
3 '-x, y, -z+1/2'
4 'x, y, z'
5 'x+1/2, -y+1/2, z+1/2'
6 '-x+1/2, -y+1/2, -z'
7 '-x+1/2, y+1/2, -z+1/2'
8 'x+1/2, y+1/2, z'
loop_
_atom_type_symbol
_atom_type_oxidation_number
Ge4+ 4
Sc3+ 3
Na1+ 1
O2- -2
loop_
_atom_site_label
_atom_site_type_symbol
_atom_site_symmetry_multiplicity
_atom_site_Wyckoff_symbol
_atom_site_fract_x
_atom_site_fract_y
_atom_site_fract_z
_atom_site_B_iso_or_equiv
_atom_site_occupancy
_atom_site_attached_hydrogens
Ge1 Ge4+ 8 f 0.28987(2) 0.40848(2) 0.24017(2) 0.00519(2) 1 0
Sc1 Sc3+ 4 e 0.5 0.09856(3) 0.25 0.00507(4) 1 0
Na1 Na1+ 4 e 0.5 0.69676(8) 0.25 0.01702(14) 1 0
O1 O2- 8 f 0.35969(8) 0.49043(8) 0.01973(14) 0.01027(12) 1 0
O2 O2- 8 f 0.11062(6) 0.42035(8) 0.13732(12) 0.00650(11) 1 0
O3 O2- 8 f 0.35857(8) 0.23727(8) 0.31007(14) 0.01062(13) 1 0
loop_
_atom_site_aniso_label
_atom_site_aniso_type_symbol
_atom_site_aniso_U_11
_atom_site_aniso_U_22
_atom_site_aniso_U_33
_atom_site_aniso_U_12
_atom_site_aniso_U_13
_atom_site_aniso_U_23
Ge1 Ge4+ 0.00463(4) 0.00589(4) 0.00486(4) 0.00089(4) 0.00109(2) 0.00027(4)
Sc1 Sc3+ 0.00498(8) 0.00512(9) 0.00492(8) 0. 0.00119(6) 0.
Na1 Na1+ 0.0208(3) 0.0129(3) 0.0130(3) 0. -0.0017(2) 0.
O1 O2- 0.0074(3) 0.0155(3) 0.0078(3) 0.0003(3) 0.0019(2) 0.0052(3)
O2 O2- 0.0048(2) 0.0079(3) 0.0063(2) 0.0010(2) 0.00077(18) -0.0006(2)
O3 O2- 0.0111(3) 0.0083(3) 0.0127(3) 0.0045(2) 0.0040(2) 0.0016(2)
#End of TTdata_430515-ICSD