
#(C) 2019 by FIZ Karlsruhe - Leibniz Institute for Information Infrastructure.  All rights reserved.
data_430618-ICSD
_database_code_ICSD 430618
_audit_creation_date 2016-08-01
_chemical_name_systematic 'Sodium bis(selenato(IV))-scandate'
_chemical_formula_structural 'Na Sc (Se O3)2'
_chemical_formula_sum 'Na1 O6 Sc1 Se2'
_chemical_name_structure_type KFe(SeO3)2
_exptl_crystal_density_diffrn 3.76
_cell_measurement_temperature 293.
_publ_section_title
'Na Sc [Se O3]2: A new alkali-metal scandium oxoselenate(IV)'
loop_
_citation_id
_citation_journal_full
_citation_year
_citation_journal_volume
_citation_page_first
_citation_page_last
_citation_journal_id_ASTM
primary 'Zeitschrift fuer Kristallographie, Supplement Issue' 2016 36 78 78
ZKSUP2
loop_
_publ_author_name
'Greiner, S.'
'Schleid, T.'
_cell_length_a 12.7928(9)
_cell_length_b 5.4637(4)
_cell_length_c 8.1402(6)
_cell_angle_alpha 90.
_cell_angle_beta 90.
_cell_angle_gamma 90.
_cell_volume 568.96
_cell_formula_units_Z 4
_symmetry_space_group_name_H-M 'P n m a'
_symmetry_Int_Tables_number 62
_refine_ls_R_factor_all 0.0326
loop_
_symmetry_equiv_pos_site_id
_symmetry_equiv_pos_as_xyz
1 'x+1/2, y, -z+1/2'
2 'x, -y+1/2, z'
3 '-x+1/2, y+1/2, z+1/2'
4 '-x, -y, -z'
5 '-x+1/2, -y, z+1/2'
6 '-x, y+1/2, -z'
7 'x+1/2, -y+1/2, -z+1/2'
8 'x, y, z'
loop_
_atom_type_symbol
_atom_type_oxidation_number
Na1+ 1
Sc3+ 3
Se4+ 4
O2- -2
loop_
_atom_site_label
_atom_site_type_symbol
_atom_site_symmetry_multiplicity
_atom_site_Wyckoff_symbol
_atom_site_fract_x
_atom_site_fract_y
_atom_site_fract_z
_atom_site_B_iso_or_equiv
_atom_site_occupancy
_atom_site_attached_hydrogens
Na1 Na1+ 4 c 0.3873(2) 0.25 0.4886(4) 0.0334(7) 1 0
Sc1 Sc3+ 4 c 0.09975(8) 0.25 0.29975(14) 0.0139(3) 1 0
Se1 Se4+ 4 c 0.06988(4) 0.25 0.71873(8) 0.01449(17) 1 0
Se2 Se4+ 4 c 0.29214(4) 0.25 0.00395(8) 0.01654(17) 1 0
O1 O2- 4 c 0.0265(3) 0.25 0.5226(5) 0.0208(10) 1 0
O2 O2- 4 c 0.1659(3) 0.25 0.0626(5) 0.0282(11) 1 0
O3 O2- 8 d 0.0030(2) 0.4887(6) 0.8003(4) 0.0243(9) 1 0
O4 O2- 8 d 0.2105(2) 0.5094(6) 0.3758(4) 0.0353(10) 1 0
loop_
_atom_site_aniso_label
_atom_site_aniso_type_symbol
_atom_site_aniso_U_11
_atom_site_aniso_U_22
_atom_site_aniso_U_33
_atom_site_aniso_U_12
_atom_site_aniso_U_13
_atom_site_aniso_U_23
Na1 Na1+ 0.0405(15) 0.0297(15) 0.0300(16) 0. -0.0015(14) 0.
Sc1 Sc3+ 0.0162(5) 0.0111(6) 0.0144(6) 0. 0.0001(5) 0.
Se1 Se4+ 0.0151(3) 0.0112(3) 0.0172(3) 0. 0.0002(2) 0.
Se2 Se4+ 0.0148(3) 0.0165(3) 0.0183(3) 0. 0.0002(2) 0.
O1 O2- 0.021(2) 0.024(2) 0.017(2) 0. -0.0003(18) 0.
O2 O2- 0.017(2) 0.044(3) 0.023(2) 0. 0.008(2) 0.
O3 O2- 0.0348(17) 0.0179(17) 0.0201(16) 0.0116(14) -0.0014(15) -0.0064(16)
O4 O2- 0.0254(17) 0.030(2) 0.050(3) -0.0128(16) 0.0098(17) -0.0191(18)
#End of TTdata_430618-ICSD