
#(C) 2019 by FIZ Karlsruhe - Leibniz Institute for Information Infrastructure.  All rights reserved.
data_430758-ICSD
_database_code_ICSD 430758
_audit_creation_date 2016-08-01
_chemical_name_systematic 'Disodium ditin zinc hexasulfide'
_chemical_formula_structural 'Na2 Sn2 Zn S6'
_chemical_formula_sum 'Na2 S6 Sn2 Zn1'
_exptl_crystal_density_diffrn 3.23
_cell_measurement_temperature 293.
_publ_section_title

;
Syntheses and structural characterization of non-centrosymmetric Na2 M2 M'S6
(M, M'=Ga, In, Si, Ge, Sn, Zn, Cd) sulfides
;
loop_
_citation_id
_citation_journal_full
_citation_year
_citation_journal_volume
_citation_page_first
_citation_page_last
_citation_journal_id_ASTM
primary 'Journal of Solid State Chemistry' 2016 238 147 155 JSSCBI
loop_
_publ_author_name
'Yohannan, Jinu P.'
'Vidyasagar, Kanamaluru'
_cell_length_a 12.9512(5)
_cell_length_b 23.5801(5)
_cell_length_c 7.2851(2)
_cell_angle_alpha 90.
_cell_angle_beta 90.
_cell_angle_gamma 90.
_cell_volume 2224.8
_cell_formula_units_Z 8
_symmetry_space_group_name_H-M 'F d d 2'
_symmetry_Int_Tables_number 43
_refine_ls_R_factor_all 0.0192
loop_
_symmetry_equiv_pos_site_id
_symmetry_equiv_pos_as_xyz
1 'x+1/4, -y+1/4, z+1/4'
2 '-x+1/4, y+1/4, z+1/4'
3 '-x, -y, z'
4 'x, y, z'
5 'x+1/4, -y+3/4, z+3/4'
6 '-x+1/4, y+3/4, z+3/4'
7 '-x, -y+1/2, z+1/2'
8 'x, y+1/2, z+1/2'
9 'x+3/4, -y+1/4, z+3/4'
10 '-x+3/4, y+1/4, z+3/4'
11 '-x+1/2, -y, z+1/2'
12 'x+1/2, y, z+1/2'
13 'x+3/4, -y+3/4, z+1/4'
14 '-x+3/4, y+3/4, z+1/4'
15 '-x+1/2, -y+1/2, z'
16 'x+1/2, y+1/2, z'
loop_
_atom_type_symbol
_atom_type_oxidation_number
Sn4+ 4
Zn2+ 2
S2- -2
Na1+ 1
loop_
_atom_site_label
_atom_site_type_symbol
_atom_site_symmetry_multiplicity
_atom_site_Wyckoff_symbol
_atom_site_fract_x
_atom_site_fract_y
_atom_site_fract_z
_atom_site_B_iso_or_equiv
_atom_site_occupancy
_atom_site_attached_hydrogens
Sn1 Sn4+ 16 b 0.12658(2) 0.138495(13) 0.31149(4) 0.01363(8) 1 0
Zn1 Zn2+ 8 a 0. 0. 0.33440(11) 0.01521(15) 1 0
S1 S2- 16 b 0.03741(9) 0.07908(5) 0.51791(15) 0.0181(2) 1 0
S2 S2- 16 b 0.05452(8) 0.13600(5) 0.00295(17) 0.0175(2) 1 0
S3 S2- 16 b 0.10349(9) 0.23396(5) 0.39973(17) 0.0184(2) 1 0
Na1 Na1+ 16 b 0.16972(18) 0.04720(10) 0.8225(4) 0.0479(6) 1 0
loop_
_atom_site_aniso_label
_atom_site_aniso_type_symbol
_atom_site_aniso_U_11
_atom_site_aniso_U_22
_atom_site_aniso_U_33
_atom_site_aniso_U_12
_atom_site_aniso_U_13
_atom_site_aniso_U_23
Sn1 Sn4+ 0.01089(13) 0.01375(13) 0.01625(14) -0.00053(9) -0.00195(12)
-0.00110(11)
Zn1 Zn2+ 0.0173(3) 0.0128(3) 0.0155(3) -0.0002(2) 0. 0.
S1 S2- 0.0230(5) 0.0169(5) 0.0145(5) -0.0042(4) 0.0034(4) -0.0031(4)
S2 S2- 0.0117(5) 0.0256(6) 0.0153(5) -0.0012(4) -0.0016(5) 0.0026(4)
S3 S2- 0.0191(5) 0.0124(5) 0.0237(6) -0.0001(4) -0.0060(5) -0.0012(5)
Na1 Na1+ 0.0408(12) 0.0686(16) 0.0343(12) 0.0170(11) 0.0157(13) 0.0188(13)
#End of TTdata_430758-ICSD