
#(C) 2019 by FIZ Karlsruhe - Leibniz Institute for Information Infrastructure.  All rights reserved.
data_430795-ICSD
_database_code_ICSD 430795
_audit_creation_date 2018-02-01
_chemical_name_systematic
'Sodium hydronium neptunium(IV) dodecamolybdate dodecahydrate'
_chemical_formula_structural 'Na7 H (Np Mo12 O42) (H2 O)12'
_chemical_formula_sum 'H25 Mo12 Na7 Np1 O54'
_chemical_name_structure_type Na7HCeMo12O42(H2O)12
_exptl_crystal_density_diffrn 3.43
_cell_measurement_temperature 100.
_publ_section_title

;
Synthesis and structure of dodecamolybdates of tetravalent cerium, thorium,
uranium, neptunium, and plutonium
;
loop_
_citation_id
_citation_journal_full
_citation_year
_citation_journal_volume
_citation_page_first
_citation_page_last
_citation_journal_id_ASTM
primary 'Radiochemistry (Moscow, Russian Federation)' 2016 58 457 465 RDIOEO
loop_
_publ_author_name
'Charushnikova, I.A.'
'Gogolev, A.V.'
'Grigor''ev, M.S.'
'Fedoseev, A.M.'
_cell_length_a 18.9347(7)
_cell_length_b 18.9347(7)
_cell_length_c 11.3922(4)
_cell_angle_alpha 90
_cell_angle_beta 90
_cell_angle_gamma 120
_cell_volume 3537.16
_cell_formula_units_Z 3
_symmetry_space_group_name_H-M 'R -3 H'
_symmetry_Int_Tables_number 148
_refine_ls_R_factor_all 0.0374
loop_
_symmetry_equiv_pos_site_id
_symmetry_equiv_pos_as_xyz
1 'x-y, x, -z'
2 'y, -x+y, -z'
3 '-x, -y, -z'
4 '-x+y, -x, z'
5 '-y, x-y, z'
6 'x, y, z'
7 'x-y+2/3, x+1/3, -z+1/3'
8 'y+2/3, -x+y+1/3, -z+1/3'
9 '-x+2/3, -y+1/3, -z+1/3'
10 '-x+y+2/3, -x+1/3, z+1/3'
11 '-y+2/3, x-y+1/3, z+1/3'
12 'x+2/3, y+1/3, z+1/3'
13 'x-y+1/3, x+2/3, -z+2/3'
14 'y+1/3, -x+y+2/3, -z+2/3'
15 '-x+1/3, -y+2/3, -z+2/3'
16 '-x+y+1/3, -x+2/3, z+2/3'
17 '-y+1/3, x-y+2/3, z+2/3'
18 'x+1/3, y+2/3, z+2/3'
loop_
_atom_type_symbol
_atom_type_oxidation_number
Np4+ 4
Mo6+ 6
Na1+ 1
O2- -2
H1+ 1
O2- -2
H1+ 1
O2- -2
H1+ 1
loop_
_atom_site_label
_atom_site_type_symbol
_atom_site_symmetry_multiplicity
_atom_site_Wyckoff_symbol
_atom_site_fract_x
_atom_site_fract_y
_atom_site_fract_z
_atom_site_B_iso_or_equiv
_atom_site_occupancy
_atom_site_attached_hydrogens
Np1 Np4+ 3 a 0.6667 0.3333 0.3333 0.00614(13) 1 0
Mo1 Mo6+ 18 f 0.75403(3) 0.28596(3) 0.56992(5) 0.00994(13) 1 0
Mo2 Mo6+ 18 f 0.87365(3) 0.43380(3) 0.41382(5) 0.01007(13) 1 0
Na1 Na1+ 3 b 0.6667 0.3333 0.8333 0.0161(13) 1 0
Na2 Na1+ 18 f 0.9916(3) 0.3963(3) 0.1552(5) 0.0663(15) 1 0
O1 O2- 18 f 0.8081(3) 0.4440(3) 0.2906(4) 0.0105(8) 1 0
O2 O2- 18 f 0.6459(3) 0.2450(3) 0.5071(4) 0.0097(8) 1 0
O3 O2- 18 f 0.8675(3) 0.3700(3) 0.5531(4) 0.0151(9) 1 0
H1 H1+ 18 f 0.9069 0.3777 0.5973 0.023 0.1667 0
O4 O2- 18 f 0.7644(3) 0.2011(3) 0.5754(4) 0.0151(9) 1 0
O5 O2- 18 f 0.7412(3) 0.3016(3) 0.7145(4) 0.0170(10) 1 0
O6 O2- 18 f 0.9465(3) 0.4261(3) 0.3360(4) 0.0170(10) 1 0
O7 O2- 18 f 0.9234(3) 0.5303(3) 0.4696(4) 0.0172(10) 1 0
O8 O2- 18 f 1.0910(4) 0.5337(5) 0.2078(7) 0.074(3) 1 0
H2 H1+ 18 f 1.0764 0.5253 0.2796 0.089 1 0
H3 H1+ 18 f 1.1413 0.5694 0.209 0.089 1 0
O9 O2- 18 f 1.0024(5) 0.3845(5) -0.0701(15) 0.162(8) 1 0
H4 H1+ 18 f 1.0529 0.4072 -0.0841 0.195 1 0
H5 H1+ 18 f 0.9866 0.4164 -0.0991 0.195 1 0
loop_
_atom_site_aniso_label
_atom_site_aniso_type_symbol
_atom_site_aniso_U_11
_atom_site_aniso_U_22
_atom_site_aniso_U_33
_atom_site_aniso_U_12
_atom_site_aniso_U_13
_atom_site_aniso_U_23
Np1 Np4+ 0.00582(17) 0.00582(17) 0.0068(2) 0.00291(8) 0. 0.
Mo1 Mo6+ 0.0100(2) 0.0109(2) 0.0095(2) 0.0056(2) -0.00136(18) 0.00126(18)
Mo2 Mo6+ 0.0063(2) 0.0097(2) 0.0131(2) 0.00318(19) -0.00146(18) 0.00020(19)
Na1 Na1+ 0.017(2) 0.017(2) 0.013(3) 0.0087(10) 0. 0.
Na2 Na1+ 0.031(2) 0.034(2) 0.138(5) 0.0199(19) 0.033(3) 0.020(3)
O1 O2- 0.010(2) 0.009(2) 0.012(2) 0.0048(17) -0.0016(16) 0.0003(16)
O2 O2- 0.010(2) 0.009(2) 0.0106(19) 0.0046(17) 0.0015(16) 0.0012(15)
O3 O2- 0.014(2) 0.012(2) 0.020(2) 0.0074(19) -0.0050(18) 0.0001(18)
O4 O2- 0.017(2) 0.018(2) 0.013(2) 0.011(2) 0.0008(18) 0.0040(18)
O5 O2- 0.020(2) 0.023(3) 0.010(2) 0.013(2) 0.0009(18) 0.0041(18)
O6 O2- 0.009(2) 0.020(2) 0.021(2) 0.0073(19) 0.0002(18) 0.0011(19)
O7 O2- 0.012(2) 0.015(2) 0.022(2) 0.0046(19) -0.0045(18) -0.0029(19)
O8 O2- 0.037(4) 0.062(5) 0.079(6) -0.009(4) 0.036(4) -0.024(5)
O9 O2- 0.049(6) 0.037(5) 0.36(2) -0.013(4) 0.101(9) -0.047(9)
#End of TTdata_430795-ICSD