
#(C) 2019 by FIZ Karlsruhe - Leibniz Institute for Information Infrastructure.  All rights reserved.
data_430826-ICSD
_database_code_ICSD 430826
_audit_creation_date 2017-08-01
_chemical_name_systematic 'Tetrasodium tetrafluoro-disulfato-titanate(IV)'
_chemical_formula_structural 'Na4 Ti F4 (S O4)2'
_chemical_formula_sum 'F4 Na4 O8 S2 Ti1'
_exptl_crystal_density_diffrn 2.88
_cell_measurement_temperature 150.
_publ_section_title

;
Synthesis and structural characterisation of transition metal fluoride
sulfates
;
loop_
_citation_id
_citation_journal_full
_citation_year
_citation_journal_volume
_citation_page_first
_citation_page_last
_citation_journal_id_ASTM
primary 'Dalton Transactions' 2016 45 8854 8861 DTARAF
loop_
_publ_author_name
'Marshall, Kayleigh L.'
'Wang, Qianlong'
'Sullivan, Hannah S. I.'
'Weller, Mark T.'
_cell_length_a 5.5997(10)
_cell_length_b 6.6012(12)
_cell_length_c 6.6657(12)
_cell_angle_alpha 86.361(15)
_cell_angle_beta 82.230(15)
_cell_angle_gamma 74.777(16)
_cell_volume 235.46
_cell_formula_units_Z 1
_symmetry_space_group_name_H-M 'P -1'
_symmetry_Int_Tables_number 2
_refine_ls_R_factor_all 0.0343
loop_
_symmetry_equiv_pos_site_id
_symmetry_equiv_pos_as_xyz
1 '-x, -y, -z'
2 'x, y, z'
loop_
_atom_type_symbol
_atom_type_oxidation_number
O2- -2
F1- -1
Na1+ 1
S6+ 6
Ti4+ 4
loop_
_atom_site_label
_atom_site_type_symbol
_atom_site_symmetry_multiplicity
_atom_site_Wyckoff_symbol
_atom_site_fract_x
_atom_site_fract_y
_atom_site_fract_z
_atom_site_B_iso_or_equiv
_atom_site_occupancy
_atom_site_attached_hydrogens
O1 O2- 2 i 0.1227(4) -0.3372(3) 0.0582(3) 0.0108(5) 1 0
O2 O2- 2 i 0.5355(4) -0.7910(4) 0.1161(3) 0.0120(5) 1 0
O3 O2- 2 i 0.3105(4) -0.4583(3) 0.7251(3) 0.0099(5) 1 0
O4 O2- 2 i 0.0604(4) -0.1005(3) 0.7737(3) 0.0108(5) 1 0
F1 F1- 2 i 0.3158(3) -0.1453(3) 0.3981(3) 0.0105(4) 1 0
F2 F1- 2 i 0.1113(3) 0.2383(3) 0.5363(3) 0.0100(4) 1 0
Na1 Na1+ 2 i 0.2587(2) -0.5014(2) 0.35808(18) 0.0121(3) 1 0
Na2 Na1+ 2 i 0.3183(2) 0.1883(2) 0.83880(18) 0.0115(3) 1 0
S1 S6+ 2 i 0.24576(13) -0.28388(11) 0.86498(11) 0.0071(2) 1 0
Ti1 Ti4+ 1 b 0. 0. 0.5 0.0065(2) 1 0
loop_
_atom_site_aniso_label
_atom_site_aniso_type_symbol
_atom_site_aniso_U_11
_atom_site_aniso_U_22
_atom_site_aniso_U_33
_atom_site_aniso_U_12
_atom_site_aniso_U_13
_atom_site_aniso_U_23
O1 O2- 0.0125(11) 0.0114(11) 0.0074(10) -0.0029(9) 0.0014(8) 0.0011(9)
O2 O2- 0.0097(10) 0.0150(12) 0.0133(11) -0.0063(9) -0.0019(9) -0.0009(9)
O3 O2- 0.0123(10) 0.0083(11) 0.0083(10) -0.0016(9) 0.0008(8) -0.0036(8)
O4 O2- 0.0123(10) 0.0089(11) 0.0091(10) 0.0028(9) -0.0045(8) 0.0001(8)
F1 F1- 0.0075(8) 0.0111(9) 0.0117(9) -0.0009(7) 0.0004(7) -0.0013(7)
F2 F1- 0.0101(8) 0.0093(9) 0.0112(9) -0.0039(7) -0.0007(7) -0.0010(7)
Na1 Na1+ 0.0110(6) 0.0122(7) 0.0121(6) -0.0021(5) -0.0003(5) 0.0017(5)
Na2 Na1+ 0.0112(6) 0.0112(6) 0.0126(6) -0.0027(5) -0.0037(5) 0.0006(5)
S1 S6+ 0.0082(4) 0.0059(4) 0.0070(4) -0.0013(3) -0.0013(3) 0.0000(3)
Ti1 Ti4+ 0.0065(4) 0.0053(4) 0.0077(4) -0.0008(3) -0.0017(3) -0.0005(3)
#End of TTdata_430826-ICSD