
#(C) 2019 by FIZ Karlsruhe - Leibniz Institute for Information Infrastructure.  All rights reserved.
data_431106-ICSD
_database_code_ICSD 431106
_audit_creation_date 2017-08-01
_chemical_name_systematic 'Sodium dihydroxo pentaborate hydrate'
_chemical_formula_structural 'Na (B5 O7 (O H)2) (H2 O)'
_chemical_formula_sum 'H4 B5 Na1 O10'
_exptl_crystal_density_diffrn 2.07
_cell_measurement_temperature 293.
_publ_section_title

;
Facile syntheses of Ba2[B4O7(OH)2] and Na[B5O7(OH)2](H2O) borate salts
exhibiting nonlinear optical activity in the ultraviolet
;
loop_
_citation_id
_citation_journal_full
_citation_year
_citation_journal_volume
_citation_page_first
_citation_page_last
_citation_journal_id_ASTM
primary 'Inorganic Chemistry' 2017 56 1340 1348 INOCAJ
loop_
_publ_author_name
'Wu, Chao'
'Li, Longhua'
'Song, Junling'
'Yang, Gang'
'Humphrey, Mark G.'
'Zhang, Chi'
_cell_length_a 11.0487(6)
_cell_length_b 7.8742(4)
_cell_length_c 8.9089(4)
_cell_angle_alpha 90.
_cell_angle_beta 90.
_cell_angle_gamma 90.
_cell_volume 775.07
_cell_formula_units_Z 4
_symmetry_space_group_name_H-M 'P c a 21'
_symmetry_Int_Tables_number 29
_refine_ls_R_factor_all 0.0366
loop_
_symmetry_equiv_pos_site_id
_symmetry_equiv_pos_as_xyz
1 'x+1/2, -y, z'
2 '-x+1/2, y, z+1/2'
3 '-x, -y, z+1/2'
4 'x, y, z'
loop_
_atom_type_symbol
_atom_type_oxidation_number
Na1+ 1
O2- -2
H1+ 1
O2- -2
H1+ 1
O2- -2
H1+ 1
O2- -2
B3+ 3
loop_
_atom_site_label
_atom_site_type_symbol
_atom_site_symmetry_multiplicity
_atom_site_Wyckoff_symbol
_atom_site_fract_x
_atom_site_fract_y
_atom_site_fract_z
_atom_site_B_iso_or_equiv
_atom_site_occupancy
_atom_site_attached_hydrogens
Na1 Na1+ 4 a 0.02661(13) 0.69160(15) 0.68407(16) 0.0382(3) 1 0
O1 O2- 4 a 0.23291(17) 0.9183(2) 0.4026(2) 0.0196(4) 1 0
H1 H1+ 4 a 0.1562 0.9001 0.4219 0.029 1 0
O2 O2- 4 a 0.00592(18) 0.8389(3) 0.4456(3) 0.0347(6) 1 0
H2 H1+ 4 a -0.0302 0.933 0.456 0.052 1 0
H3 H1+ 4 a -0.0338 0.7935 0.3689 0.052 1 0
O3 O2- 4 a 0.25207(16) 0.7163(2) 0.5973(2) 0.0143(4) 1 0
O4 O2- 4 a 0.44570(15) 0.5986(2) 0.65447(19) 0.0158(4) 1 0
O5 O2- 4 a 0.42573(16) 0.8165(2) 0.4632(2) 0.0166(4) 1 0
O6 O2- 4 a 0.60295(16) 0.8018(2) 0.6205(2) 0.0160(4) 1 0
O7 O2- 4 a 0.81014(16) 0.8463(2) 0.6878(2) 0.0194(4) 1 0
H4 H1+ 4 a 0.7881 0.9186 0.7568 0.029 1 0
O8 O2- 4 a 0.76557(16) 0.6602(2) 0.4941(2) 0.0157(4) 1 0
O9 O2- 4 a 0.26825(14) 0.5263(2) 0.7952(2) 0.0147(4) 1 0
O10 O2- 4 a 0.56334(15) 0.5891(2) 0.4293(2) 0.0156(4) 1 0
B1 B3+ 4 a 0.3055(3) 0.8165(3) 0.4880(3) 0.0116(6) 1 0
B2 B3+ 4 a 0.3270(2) 0.6116(3) 0.6817(3) 0.0119(5) 1 0
B3 B3+ 4 a 0.5103(3) 0.7022(4) 0.5428(4) 0.0139(6) 1 0
B4 B3+ 4 a 0.7224(3) 0.7722(3) 0.6020(3) 0.0140(6) 1 0
B5 B3+ 4 a 0.3166(3) 0.4250(3) 0.9061(4) 0.0128(6) 1 0
loop_
_atom_site_aniso_label
_atom_site_aniso_type_symbol
_atom_site_aniso_U_11
_atom_site_aniso_U_22
_atom_site_aniso_U_33
_atom_site_aniso_U_12
_atom_site_aniso_U_13
_atom_site_aniso_U_23
Na1 Na1+ 0.0401(7) 0.0347(7) 0.0398(7) -0.0116(6) 0.0178(6) -0.0041(6)
O1 O2- 0.0139(9) 0.0206(9) 0.0243(10) 0.0022(8) 0.0014(8) 0.0121(8)
O2 O2- 0.0203(11) 0.0305(11) 0.0532(16) -0.0005(9) 0.0019(10) -0.0177(11)
O3 O2- 0.0137(8) 0.0147(8) 0.0146(9) 0.0021(7) 0.0009(7) 0.0049(7)
O4 O2- 0.0118(9) 0.0157(9) 0.0198(11) 0.0015(7) 0.0005(7) 0.0052(8)
O5 O2- 0.0129(9) 0.0163(9) 0.0207(10) 0.0001(7) 0.0009(7) 0.0066(8)
O6 O2- 0.0146(9) 0.0148(9) 0.0185(9) -0.0005(7) 0.0006(8) -0.0059(7)
O7 O2- 0.0175(9) 0.0211(9) 0.0197(9) -0.0005(8) 0.0012(9) -0.0127(8)
O8 O2- 0.0130(9) 0.0172(9) 0.0168(9) -0.0003(7) -0.0009(7) -0.0061(8)
O9 O2- 0.0132(9) 0.0174(9) 0.0135(8) 0.0001(7) 0.0016(8) 0.0039(7)
O10 O2- 0.0135(9) 0.0166(9) 0.0166(10) -0.0021(7) 0.0011(7) -0.0077(8)
B1 B3+ 0.0169(15) 0.0104(13) 0.0076(13) -0.0011(11) -0.0023(11) -0.0015(11)
B2 B3+ 0.0193(14) 0.0082(11) 0.0083(12) -0.0020(11) -0.0051(13) -0.0023(10)
B3 B3+ 0.0139(14) 0.0139(14) 0.0137(12) -0.0019(12) 0.0006(10) 0.0013(11)
B4 B3+ 0.0138(15) 0.0130(13) 0.0152(14) -0.0029(11) -0.0003(12) 0.0020(12)
B5 B3+ 0.0172(15) 0.0081(12) 0.0131(13) -0.0016(11) -0.0021(12) -0.0002(11)
#End of TTdata_431106-ICSD