
#(C) 2019 by FIZ Karlsruhe - Leibniz Institute for Information Infrastructure.  All rights reserved.
data_431105-ICSD
_database_code_ICSD 431105
_audit_creation_date 2017-08-01
_chemical_name_systematic 'Sodium manganate(VII)'
_chemical_formula_structural 'Na (Mn O4)'
_chemical_formula_sum 'Mn1 Na1 O4'
_chemical_name_structure_type AgMnO4
_exptl_crystal_density_diffrn 2.73
_cell_measurement_temperature 293.
_publ_section_title 'Synthesis and crystal structure of anhydrous Na [Mn O4]'
loop_
_citation_id
_citation_journal_full
_citation_year
_citation_journal_volume
_citation_page_first
_citation_page_last
_citation_journal_id_ASTM
primary 'Zeitschrift fuer Naturforschung, B: A Journal of Chemical Sciences'
2016 71 993 995 ZNBSEN
loop_
_publ_author_name
'Bauchert, Joerg M.'
'Henning, Harald'
'Schleid, Thomas'
_cell_length_a 5.7298(5)
_cell_length_b 8.4259(7)
_cell_length_c 7.1547(6)
_cell_angle_alpha 90.
_cell_angle_beta 92.374(3)
_cell_angle_gamma 90.
_cell_volume 345.12
_cell_formula_units_Z 4
_symmetry_space_group_name_H-M 'P 1 21/n 1'
_symmetry_Int_Tables_number 14
_refine_ls_R_factor_all 0.0449
loop_
_symmetry_equiv_pos_site_id
_symmetry_equiv_pos_as_xyz
1 '-x+1/2, y+1/2, -z+1/2'
2 '-x, -y, -z'
3 'x+1/2, -y+1/2, z+1/2'
4 'x, y, z'
loop_
_atom_type_symbol
_atom_type_oxidation_number
Na1+ 1
Mn7+ 7
O2- -2
loop_
_atom_site_label
_atom_site_type_symbol
_atom_site_symmetry_multiplicity
_atom_site_Wyckoff_symbol
_atom_site_fract_x
_atom_site_fract_y
_atom_site_fract_z
_atom_site_B_iso_or_equiv
_atom_site_occupancy
_atom_site_attached_hydrogens
Na1 Na1+ 4 e 0.2518(3) 0.0364(2) 0.1593(2) 0.0385(4) 1 0
Mn1 Mn7+ 4 e 0.25709(9) 0.18805(6) 0.65959(7) 0.0267(2) 1 0
O1 O2- 4 e 0.2511(6) 0.0616(4) 0.4932(4) 0.0440(7) 1 0
O2 O2- 4 e 0.9932(6) 0.2235(4) 0.7159(4) 0.0414(6) 1 0
O3 O2- 4 e 0.8802(6) 0.1504(3) 0.0917(4) 0.0393(6) 1 0
O4 O2- 4 e 0.4049(6) 0.1171(4) 0.8381(4) 0.0400(6) 1 0
loop_
_atom_site_aniso_label
_atom_site_aniso_type_symbol
_atom_site_aniso_U_11
_atom_site_aniso_U_22
_atom_site_aniso_U_33
_atom_site_aniso_U_12
_atom_site_aniso_U_13
_atom_site_aniso_U_23
Na1 Na1+ 0.0352(8) 0.0420(8) 0.0381(7) 0.0048(6) -0.0028(6) -0.0054(6)
Mn1 Mn7+ 0.0265(3) 0.0277(3) 0.0258(3) -0.00006(19) 0.00044(15) 0.00083(17)
O1 O2- 0.0476(17) 0.0430(15) 0.0417(14) -0.0039(13) 0.0044(12) -0.0101(11)
O2 O2- 0.0334(15) 0.0491(16) 0.0419(14) 0.0046(12) 0.0055(11) 0.0047(11)
O3 O2- 0.0417(16) 0.0334(12) 0.0427(14) 0.0047(11) 0.0025(11) -0.0052(10)
O4 O2- 0.0405(16) 0.0418(15) 0.0373(13) 0.0051(12) -0.0047(11) 0.0058(11)
#End of TTdata_431105-ICSD