
#(C) 2019 by FIZ Karlsruhe - Leibniz Institute for Information Infrastructure.  All rights reserved.
data_431336-ICSD
_database_code_ICSD 431336
_audit_creation_date 2018-02-01
_chemical_name_systematic 'Lithium sodium molybdenum oxide (1/3/2/8)'
_chemical_formula_structural 'Li Na3 Mo2 O8'
_chemical_formula_sum 'Li1 Mo2 Na3 O8'
_exptl_crystal_density_diffrn 3.29
_cell_measurement_temperature 296.
_publ_section_title

;
The enhancement of birefringence resulted from anionic dimensionality changes
through adjusting cationic density
;
loop_
_citation_id
_citation_journal_full
_citation_year
_citation_journal_volume
_citation_page_first
_citation_page_last
_citation_journal_id_ASTM
primary 'Journal of Alloys and Compounds' 2017 717 317 325 JALCEU
loop_
_publ_author_name
'Liu, Lili'
'Yang, Yun'
'Yang, Zhihua'
'Pan, Shilie'
_cell_length_a 6.4127(19)
_cell_length_b 11.961(4)
_cell_length_c 10.461(3)
_cell_angle_alpha 90.
_cell_angle_beta 95.729(17)
_cell_angle_gamma 90.
_cell_volume 798.37
_cell_formula_units_Z 4
_symmetry_space_group_name_H-M 'P 1 21/c 1'
_symmetry_Int_Tables_number 14
_refine_ls_R_factor_all 0.0226
loop_
_symmetry_equiv_pos_site_id
_symmetry_equiv_pos_as_xyz
1 'x, -y+1/2, z+1/2'
2 '-x, -y, -z'
3 '-x, y+1/2, -z+1/2'
4 'x, y, z'
loop_
_atom_type_symbol
_atom_type_oxidation_number
Li1+ 1
Na1+ 1
Mo6+ 6
O2- -2
loop_
_atom_site_label
_atom_site_type_symbol
_atom_site_symmetry_multiplicity
_atom_site_Wyckoff_symbol
_atom_site_fract_x
_atom_site_fract_y
_atom_site_fract_z
_atom_site_B_iso_or_equiv
_atom_site_occupancy
_atom_site_attached_hydrogens
Li1 Li1+ 4 e 0.2857(11) 0.1547(6) 0.9253(7) 0.0254(18) 1 0
Na1 Na1+ 4 e 0.7981(3) 0.13322(15) 0.86812(18) 0.0342(5) 1 0
Na2 Na1+ 4 e 0.6383(3) 0.38061(14) 0.99634(18) 0.0282(4) 1 0
Na3 Na1+ 4 e 0.8759(3) -0.09403(13) 0.69699(18) 0.0275(4) 1 0
Mo1 Mo6+ 4 e 0.62679(5) 0.09815(3) 1.16145(4) 0.01473(13) 1 0
Mo2 Mo6+ 4 e 1.14489(5) 0.16950(3) 0.61828(4) 0.01447(13) 1 0
O1 O2- 4 e 1.2978(4) 0.0780(2) 0.5353(3) 0.0253(7) 1 0
O2 O2- 4 e 0.4075(4) 0.0265(2) 1.2046(3) 0.0255(7) 1 0
O3 O2- 4 e 0.9190(4) 0.0993(2) 0.6566(3) 0.0227(7) 1 0
O4 O2- 4 e 0.7608(4) 0.1668(2) 1.2948(3) 0.0247(7) 1 0
O5 O2- 4 e 1.2794(4) 0.2253(2) 0.7596(3) 0.0224(7) 1 0
O6 O2- 4 e 0.8002(4) -0.0003(2) 1.1079(3) 0.0261(8) 1 0
O7 O2- 4 e 0.5519(4) 0.1895(2) 1.0304(3) 0.0206(7) 1 0
O8 O2- 4 e 1.0646(4) 0.2792(2) 0.5137(3) 0.0251(7) 1 0
loop_
_atom_site_aniso_label
_atom_site_aniso_type_symbol
_atom_site_aniso_U_11
_atom_site_aniso_U_22
_atom_site_aniso_U_33
_atom_site_aniso_U_12
_atom_site_aniso_U_13
_atom_site_aniso_U_23
Li1 Li1+ 0.028(4) 0.021(4) 0.025(5) 0.005(3) -0.004(4) -0.007(3)
Na1 Na1+ 0.0429(12) 0.0372(11) 0.0256(11) -0.0200(9) 0.0179(9) -0.0130(9)
Na2 Na1+ 0.0263(10) 0.0243(10) 0.0346(12) -0.0016(8) 0.0068(9) 0.0019(8)
Na3 Na1+ 0.0256(10) 0.0220(10) 0.0362(12) -0.0011(8) 0.0090(9) 0.0029(8)
Mo1 Mo6+ 0.0168(2) 0.0127(2) 0.0146(2) -0.00173(15) 0.00113(16) 0.00078(15)
Mo2 Mo6+ 0.0181(2) 0.0120(2) 0.0137(2) -0.00136(15) 0.00356(16) -0.00054(15)
O1 O2- 0.0261(17) 0.0189(16) 0.0315(19) 0.0012(14) 0.0061(15) -0.0080(14)
O2 O2- 0.0229(17) 0.0209(16) 0.034(2) -0.0035(13) 0.0089(15) 0.0027(14)
O3 O2- 0.0250(17) 0.0193(16) 0.0251(19) -0.0057(13) 0.0085(14) 0.0013(14)
O4 O2- 0.0286(18) 0.0218(17) 0.0225(18) -0.0026(13) -0.0032(14) -0.0033(14)
O5 O2- 0.0321(18) 0.0208(17) 0.0140(17) -0.0044(13) 0.0012(14) -0.0023(13)
O6 O2- 0.0259(17) 0.0182(17) 0.035(2) -0.0009(14) 0.0093(15) -0.0028(14)
O7 O2- 0.0242(17) 0.0171(15) 0.0198(18) -0.0026(13) -0.0012(14) 0.0025(13)
O8 O2- 0.0219(17) 0.0235(17) 0.0298(19) 0.0007(13) 0.0029(14) 0.0132(14)
#End of TTdata_431336-ICSD