
#(C) 2019 by FIZ Karlsruhe - Leibniz Institute for Information Infrastructure.  All rights reserved.
data_431469-ICSD
_database_code_ICSD 431469
_audit_creation_date 2018-02-01
_chemical_name_systematic
'Disodium trigadolinium trichloride tetrakis(tellurate(IV))'
_chemical_formula_structural 'Na2 Gd3 Cl3 (Te O3)4'
_chemical_formula_sum 'Cl3 Gd3 Na2 O12 Te4'
_exptl_crystal_density_diffrn 5.48
_cell_measurement_temperature 293.
_publ_section_title

;
Synthesis, structures, and luminescent properties of sodium rare-earth
metal(III) chloride oxotellurates(IV), Na2Ln3Cl3[TeO3]4 (Ln = Sm, Eu, Gd, Tb,
Dy, and Ho)
;
loop_
_citation_id
_citation_journal_full
_citation_year
_citation_journal_volume
_citation_page_first
_citation_page_last
_citation_journal_id_ASTM
primary 'Zeitschrift fuer Anorganische und Allgemeine Chemie' 2017 643 1654 1660
ZAACAB
loop_
_publ_author_name
'Charkin, Dmitri O.'
'Zitzer, Sabine'
'Greiner, Stefan'
'Dorofeev, Sergey G.'
'Olenev, Andrei V.'
'Berdonosov, Peter S.'
'Schleid, Thomas'
'Dolgikh, Valery A.'
_cell_length_a 23.9280(10)
_cell_length_b 5.59280(10)
_cell_length_c 17.1133(8)
_cell_angle_alpha 90
_cell_angle_beta 135.366(3)
_cell_angle_gamma 90
_cell_volume 1609.02
_cell_formula_units_Z 4
_symmetry_space_group_name_H-M 'C 1 2/c 1'
_symmetry_Int_Tables_number 15
_refine_ls_R_factor_all 0.0363
loop_
_symmetry_equiv_pos_site_id
_symmetry_equiv_pos_as_xyz
1 'x, -y, z+1/2'
2 '-x, -y, -z'
3 '-x, y, -z+1/2'
4 'x, y, z'
5 'x+1/2, -y+1/2, z+1/2'
6 '-x+1/2, -y+1/2, -z'
7 '-x+1/2, y+1/2, -z+1/2'
8 'x+1/2, y+1/2, z'
loop_
_atom_type_symbol
_atom_type_oxidation_number
Gd3+ 3
Te4+ 4
Cl1- -1
Na1+ 1
O2- -2
loop_
_atom_site_label
_atom_site_type_symbol
_atom_site_symmetry_multiplicity
_atom_site_Wyckoff_symbol
_atom_site_fract_x
_atom_site_fract_y
_atom_site_fract_z
_atom_site_B_iso_or_equiv
_atom_site_occupancy
_atom_site_attached_hydrogens
Gd1 Gd3+ 4 e 0. 0.50037(19) 0.25 0.0078(3) 1 0
Gd2 Gd3+ 8 f 0.16541(4) 1.00010(14) 0.41412(6) 0.0081(3) 1 0
Te1 Te4+ 8 f 0.18693(6) 1.45201(19) 0.30288(8) 0.0090(3) 1 0
Te2 Te4+ 8 f 0.01853(6) 0.94638(19) 0.40539(8) 0.0081(3) 1 0
Cl1 Cl1- 4 b 0. 0.5 0.5 0.0294(15) 1 0
Cl2 Cl1- 8 f 0.1675(2) 0.0030(8) 0.6678(4) 0.0221(9) 1 0
Na1 Na1+ 8 f 0.1580(5) 0.4709(14) 0.5735(7) 0.0277(18) 1 0
O1 O2- 8 f 0.0602(6) 0.194(2) 0.3859(8) 0.012(2) 1 0
O2 O2- 8 f 0.0632(6) 0.828(2) 0.2402(9) 0.011(2) 1 0
O3 O2- 8 f 0.0901(6) 0.7337(19) 0.4284(8) 0.008(2) 1 0
O4 O2- 8 f 0.2275(6) 0.694(2) 0.4063(9) 0.013(2) 1 0
O5 O2- 8 f 0.1073(6) 0.334(2) 0.2903(9) 0.013(2) 1 0
O6 O2- 8 f 0.2575(6) 1.2335(19) 0.4211(8) 0.008(2) 1 0
loop_
_atom_site_aniso_label
_atom_site_aniso_type_symbol
_atom_site_aniso_U_11
_atom_site_aniso_U_22
_atom_site_aniso_U_33
_atom_site_aniso_U_12
_atom_site_aniso_U_13
_atom_site_aniso_U_23
Gd1 Gd3+ 0.0074(5) 0.0081(6) 0.0088(5) 0. 0.0061(4) 0.
Gd2 Gd3+ 0.0070(4) 0.0086(4) 0.0072(4) 0.0000(3) 0.0045(3) 0.0000(3)
Te1 Te4+ 0.0096(5) 0.0107(5) 0.0076(5) -0.0008(4) 0.0065(4) 0.0003(4)
Te2 Te4+ 0.0086(5) 0.0091(5) 0.0082(5) 0.0001(4) 0.0065(4) -0.0002(4)
Cl1 Cl1- 0.032(3) 0.021(4) 0.043(4) 0.002(3) 0.030(3) 0.005(3)
Cl2 Cl1- 0.0205(19) 0.027(2) 0.019(2) 0.0004(17) 0.0144(18) 0.0024(18)
Na1 Na1+ 0.041(4) 0.025(4) 0.041(4) 0.023(3) 0.038(4) 0.021(3)
O1 O2- 0.010(5) 0.013(6) 0.008(5) 0.004(4) 0.005(5) 0.003(4)
O2 O2- 0.011(5) 0.013(6) 0.009(5) 0.005(4) 0.006(5) 0.006(5)
O3 O2- 0.006(5) 0.009(5) 0.011(5) 0.003(4) 0.007(5) 0.005(4)
O4 O2- 0.011(5) 0.014(6) 0.011(5) 0.003(5) 0.007(5) 0.002(5)
O5 O2- 0.010(5) 0.014(6) 0.020(6) 0.002(5) 0.012(5) 0.000(5)
O6 O2- 0.008(5) 0.010(5) 0.007(5) 0.003(4) 0.006(4) 0.001(4)
#End of TTdata_431469-ICSD