
#(C) 2019 by FIZ Karlsruhe - Leibniz Institute for Information Infrastructure.  All rights reserved.
data_431531-ICSD
_database_code_ICSD 431531
_audit_creation_date 2017-08-01
_chemical_name_systematic 'Sodium scandium hexathiodiphosphate'
_chemical_formula_structural 'Na Sc P2 S6'
_chemical_formula_sum 'Na1 P2 S6 Sc1'
_exptl_crystal_density_diffrn 2.19
_cell_measurement_temperature 298.
_publ_section_title

;
Structural stability diagram of ALnP2S6 compounds (A = Na, K, Rb, Cs; Ln =
lanthanide)
;
loop_
_citation_id
_citation_journal_full
_citation_year
_citation_journal_volume
_citation_page_first
_citation_page_last
_citation_journal_id_ASTM
primary 'Inorganic Chemistry' 2017 56 1121 1131 INOCAJ
loop_
_publ_author_name
'Schoop, Leslie M.'
'Eger, Roland'
'Kremer, Reinhard K.'
'Kuhn, Alexander'
'Nuss, Juergen'
'Lotsch, Bettina V.'
_cell_length_a 8.0240(16)
_cell_length_b 11.200(2)
_cell_length_c 21.735(4)
_cell_angle_alpha 90.
_cell_angle_beta 90.
_cell_angle_gamma 90.
_cell_volume 1953.29
_cell_formula_units_Z 8
_symmetry_space_group_name_H-M 'F d d 2'
_symmetry_Int_Tables_number 43
_refine_ls_R_factor_all 0.02
loop_
_symmetry_equiv_pos_site_id
_symmetry_equiv_pos_as_xyz
1 'x+1/4, -y+1/4, z+1/4'
2 '-x+1/4, y+1/4, z+1/4'
3 '-x, -y, z'
4 'x, y, z'
5 'x+1/4, -y+3/4, z+3/4'
6 '-x+1/4, y+3/4, z+3/4'
7 '-x, -y+1/2, z+1/2'
8 'x, y+1/2, z+1/2'
9 'x+3/4, -y+1/4, z+3/4'
10 '-x+3/4, y+1/4, z+3/4'
11 '-x+1/2, -y, z+1/2'
12 'x+1/2, y, z+1/2'
13 'x+3/4, -y+3/4, z+1/4'
14 '-x+3/4, y+3/4, z+1/4'
15 '-x+1/2, -y+1/2, z'
16 'x+1/2, y+1/2, z'
loop_
_atom_type_symbol
_atom_type_oxidation_number
Sc3+ 3
Na1+ 1
P4+ 4
S2- -2
loop_
_atom_site_label
_atom_site_type_symbol
_atom_site_symmetry_multiplicity
_atom_site_Wyckoff_symbol
_atom_site_fract_x
_atom_site_fract_y
_atom_site_fract_z
_atom_site_B_iso_or_equiv
_atom_site_occupancy
_atom_site_attached_hydrogens
Sc1 Sc3+ 8 a 0.25 0.25 1.00040(3) 0.01789(13) 1 0
Na1 Na1+ 8 a 0.25 0.25 0.66701(8) 0.0394(5) 1 0
P1 P4+ 16 b 0.13866(7) 0.19200(5) 0.83961(4) 0.01724(12) 1 0
S1 S2- 16 b 0.22775(9) 0.02336(5) 0.83257(3) 0.02521(16) 1 0
S2 S2- 16 b 0.01837(9) 0.23402(7) 0.91880(3) 0.02355(16) 1 0
S3 S2- 16 b -0.00395(10) 0.22897(5) 0.76530(2) 0.02168(14) 1 0
loop_
_atom_site_aniso_label
_atom_site_aniso_type_symbol
_atom_site_aniso_U_11
_atom_site_aniso_U_22
_atom_site_aniso_U_33
_atom_site_aniso_U_12
_atom_site_aniso_U_13
_atom_site_aniso_U_23
Sc1 Sc3+ 0.0231(3) 0.0177(2) 0.0129(3) 0.0039(4) 0. 0.
Na1 Na1+ 0.0424(10) 0.0466(10) 0.0292(10) -0.0200(8) 0. 0.
P1 P4+ 0.0206(3) 0.0174(2) 0.0137(2) -0.0017(2) -0.0014(3) -0.0003(2)
S1 S2- 0.0316(4) 0.0172(3) 0.0269(4) 0.0021(2) -0.0100(3) -0.0015(3)
S2 S2- 0.0217(4) 0.0325(4) 0.0164(3) -0.0012(3) 0.0010(3) -0.0030(3)
S3 S2- 0.0263(3) 0.0194(2) 0.0193(3) 0.0005(3) -0.0058(3) 0.0002(2)
#End of TTdata_431531-ICSD