
#(C) 2019 by FIZ Karlsruhe - Leibniz Institute for Information Infrastructure.  All rights reserved.
data_431530-ICSD
_database_code_ICSD 431530
_audit_creation_date 2017-08-01
_chemical_name_systematic 'Sodium praseodymium hexathiodiphosphate'
_chemical_formula_structural 'Na Pr P2 S6'
_chemical_formula_sum 'Na1 P2 Pr1 S6'
_chemical_name_structure_type KBiP2Se6
_exptl_crystal_density_diffrn 3.12
_cell_measurement_temperature 298.
_publ_section_title

;
Structural stability diagram of ALnP2S6 compounds (A = Na, K, Rb, Cs; Ln =
lanthanide)
;
loop_
_citation_id
_citation_journal_full
_citation_year
_citation_journal_volume
_citation_page_first
_citation_page_last
_citation_journal_id_ASTM
primary 'Inorganic Chemistry' 2017 56 1121 1131 INOCAJ
loop_
_publ_author_name
'Schoop, Leslie M.'
'Eger, Roland'
'Kremer, Reinhard K.'
'Kuhn, Alexander'
'Nuss, Juergen'
'Lotsch, Bettina V.'
_cell_length_a 11.6056(4)
_cell_length_b 7.3991(2)
_cell_length_c 11.1533(4)
_cell_angle_alpha 90.
_cell_angle_beta 111.55
_cell_angle_gamma 90.
_cell_volume 890.79
_cell_formula_units_Z 4
_symmetry_space_group_name_H-M 'P 1 21/c 1'
_symmetry_Int_Tables_number 14
_refine_ls_R_factor_all 0.0197
loop_
_symmetry_equiv_pos_site_id
_symmetry_equiv_pos_as_xyz
1 'x, -y+1/2, z+1/2'
2 '-x, -y, -z'
3 '-x, y+1/2, -z+1/2'
4 'x, y, z'
loop_
_atom_type_symbol
_atom_type_oxidation_number
Pr3+ 3
P4+ 4
S2- -2
Na1+ 1
loop_
_atom_site_label
_atom_site_type_symbol
_atom_site_symmetry_multiplicity
_atom_site_Wyckoff_symbol
_atom_site_fract_x
_atom_site_fract_y
_atom_site_fract_z
_atom_site_B_iso_or_equiv
_atom_site_occupancy
_atom_site_attached_hydrogens
Pr1 Pr3+ 4 e 0.156907(8) 0.608934(12) 0.410438(8) 0.01334(4) 1 0
P1 P4+ 4 e 0.30736(4) 0.88539(5) 0.25110(4) 0.01225(8) 1 0
P2 P4+ 4 e 0.17758(4) 1.10233(5) 0.25172(4) 0.01199(8) 1 0
S1 S2- 4 e 0.05345(4) 0.98174(6) 0.31644(4) 0.01606(8) 1 0
S2 S2- 4 e 0.38534(4) 0.80443(6) 0.43522(4) 0.01707(8) 1 0
S3 S2- 4 e -0.09349(4) 0.68785(6) 0.43299(4) 0.01515(7) 1 0
S4 S2- 4 e 0.19367(4) 0.68578(6) 0.14830(4) 0.01570(7) 1 0
S5 S2- 4 e 0.40968(4) 0.50916(6) 0.65896(5) 0.01872(8) 1 0
S6 S2- 4 e 0.28684(4) 0.29172(6) 0.36776(4) 0.01735(8) 1 0
Na1 Na1+ 4 e 0.64071(11) 0.88957(13) 0.37878(12) 0.0322(2) 1 0
loop_
_atom_site_aniso_label
_atom_site_aniso_type_symbol
_atom_site_aniso_U_11
_atom_site_aniso_U_22
_atom_site_aniso_U_33
_atom_site_aniso_U_12
_atom_site_aniso_U_13
_atom_site_aniso_U_23
Pr1 Pr3+ 0.01474(5) 0.01227(5) 0.01332(5) -0.00053(2) 0.00553(4) -0.00016(2)
P1 P4+ 0.01264(17) 0.01212(17) 0.01219(17) 0.00066(12) 0.00477(14) 0.00079(12)
P2 P4+ 0.01257(17) 0.01108(17) 0.01237(17) 0.00041(12) 0.00465(14) 0.00000(12)
S1 S2- 0.01490(17) 0.01671(17) 0.01830(18) 0.00213(13) 0.00813(14) 0.00421(14)
S2 S2- 0.01573(17) 0.01974(19) 0.01334(16) -0.00006(14) 0.00251(13) 0.00312(13)
S3 S2- 0.01653(17) 0.01551(17) 0.01267(16) -0.00228(13) 0.00448(13) -0.00132(12)
S4 S2- 0.01771(17) 0.01356(16) 0.01505(16) -0.00218(13) 0.00511(13) -0.00056(12)
S5 S2- 0.02077(19) 0.01878(19) 0.02095(19) 0.00064(15) 0.01276(16) -0.00165(15)
S6 S2- 0.01661(17) 0.01437(17) 0.01860(18) 0.00007(13) 0.00355(14) -0.00423(14)
Na1 Na1+ 0.0330(5) 0.0247(5) 0.0360(5) -0.0005(3) 0.0095(4) 0.0029(4)
#End of TTdata_431530-ICSD