
#(C) 2019 by FIZ Karlsruhe - Leibniz Institute for Information Infrastructure.  All rights reserved.
data_431532-ICSD
_database_code_ICSD 431532
_audit_creation_date 2017-08-01
_chemical_name_systematic 'Sodium terbium hexathiodiphosphate'
_chemical_formula_structural 'Na Tb P2 S6'
_chemical_formula_sum 'Na1 P2 S6 Tb1'
_chemical_name_structure_type NaYbP2S6
_exptl_crystal_density_diffrn 3.26
_cell_measurement_temperature 298.
_publ_section_title

;
Structural stability diagram of ALnP2S6 compounds (A = Na, K, Rb, Cs; Ln =
lanthanide)
;
loop_
_citation_id
_citation_journal_full
_citation_year
_citation_journal_volume
_citation_page_first
_citation_page_last
_citation_journal_id_ASTM
primary 'Inorganic Chemistry' 2017 56 1121 1131 INOCAJ
loop_
_publ_author_name
'Schoop, Leslie M.'
'Eger, Roland'
'Kremer, Reinhard K.'
'Kuhn, Alexander'
'Nuss, Juergen'
'Lotsch, Bettina V.'
_cell_length_a 6.8490(14)
_cell_length_b 7.1340(14)
_cell_length_c 9.1070(18)
_cell_angle_alpha 87.71(3)
_cell_angle_beta 87.54(3)
_cell_angle_gamma 88.19(3)
_cell_volume 444.01
_cell_formula_units_Z 2
_symmetry_space_group_name_H-M 'P -1'
_symmetry_Int_Tables_number 2
_refine_ls_R_factor_all 0.0271
loop_
_symmetry_equiv_pos_site_id
_symmetry_equiv_pos_as_xyz
1 '-x, -y, -z'
2 'x, y, z'
loop_
_atom_type_symbol
_atom_type_oxidation_number
Tb3+ 3
P4+ 4
S2- -2
Na1+ 1
loop_
_atom_site_label
_atom_site_type_symbol
_atom_site_symmetry_multiplicity
_atom_site_Wyckoff_symbol
_atom_site_fract_x
_atom_site_fract_y
_atom_site_fract_z
_atom_site_B_iso_or_equiv
_atom_site_occupancy
_atom_site_attached_hydrogens
Tb1 Tb3+ 2 i 0.02222(3) 0.38111(3) 0.75235(2) 0.01359(10) 1 0
P1 P4+ 2 i 0.35250(18) 0.4624(2) 0.46924(12) 0.0167(3) 1 0
P2 P4+ 2 i -0.06502(16) 0.89147(17) 0.93565(11) 0.0107(2) 1 0
S1 S2- 2 i 0.14638(16) 0.68358(17) 0.93931(11) 0.0139(2) 1 0
S2 S2- 2 i -0.12218(18) 0.01344(18) 0.73931(11) 0.0169(2) 1 0
S3 S2- 2 i 0.29713(16) 0.20118(18) 0.94114(11) 0.0151(2) 1 0
S4 S2- 2 i 0.16845(17) 0.66759(19) 0.54785(12) 0.0178(2) 1 0
S5 S2- 2 i 0.30459(19) 0.20996(19) 0.56675(12) 0.0197(3) 1 0
S6 S2- 2 i -0.35966(18) 0.5283(2) 0.75294(11) 0.0200(3) 1 0
Na1 Na1+ 2 i 0.4675(4) 0.8986(4) 0.7672(3) 0.0388(6) 1 0
loop_
_atom_site_aniso_label
_atom_site_aniso_type_symbol
_atom_site_aniso_U_11
_atom_site_aniso_U_22
_atom_site_aniso_U_33
_atom_site_aniso_U_12
_atom_site_aniso_U_13
_atom_site_aniso_U_23
Tb1 Tb3+ 0.01792(13) 0.01051(15) 0.01198(12) 0.00196(8) -0.00030(7) 0.00171(7)
P1 P4+ 0.0179(5) 0.0175(7) 0.0146(5) 0.0006(5) -0.0010(4) -0.0002(4)
P2 P4+ 0.0146(5) 0.0073(6) 0.0101(4) 0.0002(4) -0.0010(4) 0.0007(4)
S1 S2- 0.0157(5) 0.0110(6) 0.0150(4) 0.0022(4) 0.0000(4) -0.0009(4)
S2 S2- 0.0252(5) 0.0144(7) 0.0114(4) -0.0032(5) -0.0048(4) 0.0026(4)
S3 S2- 0.0144(5) 0.0153(6) 0.0153(4) -0.0005(4) 0.0009(4) 0.0019(4)
S4 S2- 0.0199(5) 0.0165(7) 0.0164(5) 0.0057(5) 0.0011(4) -0.0005(4)
S5 S2- 0.0278(6) 0.0129(7) 0.0179(5) -0.0022(5) 0.0032(4) 0.0017(4)
S6 S2- 0.0224(6) 0.0262(8) 0.0111(4) 0.0076(5) -0.0025(4) -0.0025(4)
Na1 Na1+ 0.0313(12) 0.0302(17) 0.0546(15) 0.0074(11) 0.0004(11) -0.0059(12)
#End of TTdata_431532-ICSD