
#(C) 2019 by FIZ Karlsruhe - Leibniz Institute for Information Infrastructure.  All rights reserved.
data_432016-ICSD
_database_code_ICSD 432016
_audit_creation_date 2018-02-01
_chemical_name_systematic 'Sodium cesium indium molybdate (25/8/5/24)'
_chemical_formula_structural 'Na25 Cs8 In5 (Mo O4)24'
_chemical_formula_sum 'Cs8 In5 Mo24 Na25 O96'
_exptl_crystal_density_diffrn 3.96
_cell_measurement_temperature 296.
_publ_section_title

;
New alluaudite-related triple molybdates Na25Cs8R5(MoO4)24 (R = Sc, In):
synthesis, crystal structures and properties
;
loop_
_citation_id
_citation_journal_full
_citation_year
_citation_journal_volume
_citation_page_first
_citation_page_last
_citation_journal_id_ASTM
primary 'New Journal of Chemistry' 2017 41 5450 5457 NJCHE5
loop_
_publ_author_name
'Savina, Aleksandra A.'
'Solodovnikov, Sergey F.'
'Belov, Dmitry A.'
'Solodovnikova, Zoya A.'
'Stefanovich, Sergey Yu.'
'Lazoryak, Bogdan I.'
'Khaikina, Elena G.'
_cell_length_a 14.0062(2)
_cell_length_b 12.6032(2)
_cell_length_c 28.7138(4)
_cell_angle_alpha 90.
_cell_angle_beta 90.0010(10)
_cell_angle_gamma 90.
_cell_volume 5068.64
_cell_formula_units_Z 2
_symmetry_space_group_name_H-M 'P 1 21/c 1'
_symmetry_Int_Tables_number 14
_refine_ls_R_factor_all 0.0356
loop_
_symmetry_equiv_pos_site_id
_symmetry_equiv_pos_as_xyz
1 'x, -y+1/2, z+1/2'
2 '-x, -y, -z'
3 '-x, y+1/2, -z+1/2'
4 'x, y, z'
loop_
_atom_type_symbol
_atom_type_oxidation_number
Cs1+ 1
Mo6+ 6
In3+ 3
Na1+ 1
In3+ 3
Na1+ 1
In3+ 3
Na1+ 1
In3+ 3
Na1+ 1
In3+ 3
Na1+ 1
In3+ 3
Na1+ 1
O2- -2
loop_
_atom_site_label
_atom_site_type_symbol
_atom_site_symmetry_multiplicity
_atom_site_Wyckoff_symbol
_atom_site_fract_x
_atom_site_fract_y
_atom_site_fract_z
_atom_site_B_iso_or_equiv
_atom_site_occupancy
_atom_site_attached_hydrogens
Cs1 Cs1+ 4 e 0.48585(6) 0.98003(5) 0.43257(3) 0.02651(16) 1 0
Cs2 Cs1+ 4 e 0.50778(7) 0.95067(6) 0.28367(3) 0.0395(2) 1 0
Cs3 Cs1+ 4 e 0.00906(6) 0.94734(6) 0.21424(3) 0.03186(19) 1 0
Cs4 Cs1+ 4 e 0.00767(8) 0.46875(7) 0.43325(4) 0.0442(2) 1 0
Mo1 Mo6+ 4 e 0.60400(7) 0.18251(7) 0.22064(3) 0.01539(18) 1 0
Mo2 Mo6+ 4 e 0.10938(7) 0.17870(6) 0.27938(3) 0.01318(18) 1 0
Mo3 Mo6+ 4 e 0.61379(6) 0.24036(7) 0.47162(3) 0.01349(17) 1 0
Mo4 Mo6+ 4 e 0.39066(7) 0.19681(7) 0.34723(3) 0.01405(18) 1 0
Mo5 Mo6+ 4 e 0.61259(7) 0.72738(7) 0.39640(3) 0.01341(18) 1 0
Mo6 Mo6+ 4 e 0.10483(6) 0.26558(7) 0.52783(3) 0.01486(18) 1 0
Mo7 Mo6+ 4 e 0.88315(7) 0.21756(7) 0.39833(3) 0.01520(18) 1 0
Mo8 Mo6+ 4 e 0.11013(7) 0.69155(7) 0.35032(3) 0.01364(18) 1 0
Mo9 Mo6+ 4 e 0.28648(6) 0.56513(7) 0.68379(3) 0.01309(17) 1 0
Mo10 Mo6+ 4 e 0.28655(6) 0.48105(7) 0.44219(3) 0.01347(17) 1 0
Mo11 Mo6+ 4 e 0.21896(7) 0.43204(7) 0.18606(3) 0.01660(19) 1 0
Mo12 Mo6+ 4 e 0.79118(6) 0.47094(6) 0.05676(3) 0.01230(17) 1 0
In1 In3+ 4 e 0.83903(5) 0.29078(5) 0.52070(2) 0.00912(16) 0.8972(17) 0
Na1 Na1+ 4 e 0.83903(5) 0.29078(5) 0.52070(2) 0.00912(16) 0.1 0
In2 In3+ 4 e 0.65712(7) 0.16977(7) 0.34913(3) 0.0101(3) 0.644(3) 0
Na2 Na1+ 4 e 0.65712(7) 0.16977(7) 0.34913(3) 0.0101(3) 0.36 0
In3 In3+ 4 e 0.33192(8) 0.19461(8) 0.22819(4) 0.0084(3) 0.491(3) 0
Na3 Na1+ 4 e 0.33192(8) 0.19461(8) 0.22819(4) 0.0084(3) 0.51 0
In4 In3+ 4 e 0.15964(11) 0.17153(10) 0.14946(5) 0.0089(4) 0.380(3) 0
Na4 Na1+ 4 e 0.15964(11) 0.17153(10) 0.14946(5) 0.0089(4) 0.62 0
In5 In3+ 4 e 0.8315(3) 0.1979(3) 0.26799(13) 0.0135(12) 0.020(3) 0
Na5 Na1+ 4 e 0.8315(3) 0.1979(3) 0.26799(13) 0.0135(12) 0.98 0
In6 In3+ 4 e 0.3373(3) 0.2114(2) 0.47994(11) 0.0189(10) 0.069(3) 0
Na6 Na1+ 4 e 0.3373(3) 0.2114(2) 0.47994(11) 0.0189(10) 0.93 0
Na7 Na1+ 4 e 0.1588(3) 0.2396(3) 0.39496(15) 0.0170(8) 1 0
Na8 Na1+ 4 e 0.3410(3) 0.7419(3) 0.39419(15) 0.0173(8) 1 0
Na9 Na1+ 4 e 0.7619(3) 0.9710(4) 0.43425(18) 0.0295(11) 1 0
Na10 Na1+ 4 e 0.7363(4) 0.4921(5) 0.43827(18) 0.0336(12) 1 0
Na11 Na1+ 4 e 0.0028(4) 0.9684(4) 0.36662(19) 0.0344(12) 1 0
Na12 Na1+ 4 e 0.2327(3) 0.9372(4) 0.31381(17) 0.0229(10) 1 0
Na13 Na1+ 4 e 0.5030(4) 0.9739(4) 0.1301(2) 0.0393(13) 1 0
Na14 Na1+ 4 e 0.2661(3) 0.4418(4) 0.31488(17) 0.0218(9) 1 0
Na15 Na1+ 4 e -0.0072(12) 0.0160(12) 0.4887(4) 0.039(4) 0.5 0
Na16 Na1+ 4 e 0.5043(10) 0.5187(9) 0.4893(4) 0.033(3) 0.5 0
O1 O2- 4 e 0.5988(6) 0.0654(6) 0.1872(3) 0.0276(18) 1 0
O2 O2- 4 e 0.6606(6) 0.2829(6) 0.1906(3) 0.0232(16) 1 0
O3 O2- 4 e 0.6667(7) 0.1539(6) 0.2731(3) 0.0258(17) 1 0
O4 O2- 4 e 0.4882(6) 0.2230(6) 0.2363(3) 0.0272(18) 1 0
O5 O2- 4 e -0.0050(6) 0.2151(6) 0.2619(3) 0.0230(16) 1 0
O6 O2- 4 e 0.1573(6) 0.2855(6) 0.3114(3) 0.0199(15) 1 0
O7 O2- 4 e 0.1026(6) 0.0643(6) 0.3129(3) 0.0282(19) 1 0
O8 O2- 4 e 0.1765(6) 0.1513(6) 0.2267(3) 0.0197(16) 1 0
O9 O2- 4 e 0.5975(6) 0.3724(6) 0.4542(3) 0.0273(19) 1 0
O10 O2- 4 e 0.5048(6) 0.1867(6) 0.4872(3) 0.0246(17) 1 0
O11 O2- 4 e 0.6617(6) 0.1592(6) 0.4260(3) 0.0235(16) 1 0
O12 O2- 4 e 0.6899(5) 0.2349(6) 0.5214(3) 0.0214(16) 1 0
O13 O2- 4 e 0.3278(6) 0.1793(6) 0.3993(3) 0.0279(19) 1 0
O14 O2- 4 e 0.4006(6) 0.3331(7) 0.3355(3) 0.032(2) 1 0
O15 O2- 4 e 0.3279(6) 0.1299(7) 0.3019(3) 0.032(2) 1 0
O16 O2- 4 e 0.5047(6) 0.1360(6) 0.3532(2) 0.0200(16) 1 0
O17 O2- 4 e 0.5009(5) 0.7772(6) 0.3809(3) 0.0247(17) 1 0
O18 O2- 4 e 0.5982(6) 0.5963(6) 0.4155(3) 0.0253(18) 1 0
O19 O2- 4 e 0.6607(6) 0.8110(5) 0.4388(2) 0.0182(15) 1 0
O20 O2- 4 e 0.6874(6) 0.7303(6) 0.3463(3) 0.0229(17) 1 0
O21 O2- 4 e 0.1672(6) 0.2747(6) 0.4761(3) 0.0272(18) 1 0
O22 O2- 4 e 0.0955(7) 0.1333(6) 0.5444(3) 0.0299(19) 1 0
O23 O2- 4 e 0.1641(6) 0.3411(7) 0.5700(3) 0.0259(17) 1 0
O24 O2- 4 e -0.0113(5) 0.3211(6) 0.5187(3) 0.0246(17) 1 0
O25 O2- 4 e 0.9935(5) 0.2670(7) 0.3826(3) 0.0275(18) 1 0
O26 O2- 4 e 0.8958(7) 0.0828(6) 0.4143(3) 0.030(2) 1 0
O27 O2- 4 e 0.8068(6) 0.2281(6) 0.3487(3) 0.0215(17) 1 0
O28 O2- 4 e 0.8375(6) 0.2952(6) 0.4455(2) 0.0237(16) 1 0
O29 O2- 4 e 0.1001(6) 0.8227(6) 0.3331(3) 0.0258(18) 1 0
O30 O2- 4 e 0.1730(6) 0.6154(6) 0.3090(3) 0.0269(18) 1 0
O31 O2- 4 e -0.0041(6) 0.6330(6) 0.3570(3) 0.0285(19) 1 0
O32 O2- 4 e 0.1717(7) 0.6840(6) 0.4043(2) 0.0239(18) 1 0
O33 O2- 4 e 0.2231(6) 0.6178(6) 0.7306(3) 0.0244(17) 1 0
O34 O2- 4 e 0.3644(6) 0.4678(6) 0.7051(3) 0.0261(18) 1 0
O35 O2- 4 e 0.2085(6) 0.5075(7) 0.6433(3) 0.0284(18) 1 0
O36 O2- 4 e 0.3651(6) 0.6580(6) 0.6563(3) 0.0224(17) 1 0
O37 O2- 4 e 0.3545(6) 0.3931(6) 0.4746(3) 0.0280(19) 1 0
O38 O2- 4 e 0.3706(6) 0.5680(6) 0.4182(3) 0.0279(19) 1 0
O39 O2- 4 e 0.2236(6) 0.4204(6) 0.3975(2) 0.0188(16) 1 0
O40 O2- 4 e 0.2056(6) 0.5466(5) 0.4829(3) 0.0178(15) 1 0
O41 O2- 4 e 0.1415(9) 0.5233(7) 0.2094(4) 0.058(4) 1 0
O42 O2- 4 e 0.1417(7) 0.3503(7) 0.1547(3) 0.033(2) 1 0
O43 O2- 4 e 0.3009(6) 0.4964(6) 0.1475(3) 0.0220(16) 1 0
O44 O2- 4 e 0.2827(7) 0.3696(6) 0.2324(3) 0.0276(19) 1 0
O45 O2- 4 e 0.8721(6) 0.5628(6) 0.0770(3) 0.0261(18) 1 0
O46 O2- 4 e 0.7234(6) 0.4192(6) 0.1035(3) 0.0235(17) 1 0
O47 O2- 4 e 0.7127(6) 0.5289(6) 0.0155(3) 0.0202(16) 1 0
O48 O2- 4 e 0.8676(6) 0.3748(6) 0.0286(3) 0.0208(16) 1 0
loop_
_atom_site_aniso_label
_atom_site_aniso_type_symbol
_atom_site_aniso_U_11
_atom_site_aniso_U_22
_atom_site_aniso_U_33
_atom_site_aniso_U_12
_atom_site_aniso_U_13
_atom_site_aniso_U_23
Cs1 Cs1+ 0.0293(4) 0.0206(3) 0.0296(4) -0.0002(3) 0.0019(3) 0.0005(3)
Cs2 Cs1+ 0.0364(5) 0.0286(4) 0.0535(6) -0.0042(3) 0.0056(5) -0.0043(3)
Cs3 Cs1+ 0.0233(4) 0.0205(3) 0.0517(5) -0.0033(3) -0.0022(4) 0.0058(3)
Cs4 Cs1+ 0.0473(5) 0.0337(4) 0.0514(6) -0.0027(4) 0.0007(5) 0.0013(4)
Mo1 Mo6+ 0.0173(4) 0.0147(4) 0.0141(4) -0.0033(3) 0.0037(4) -0.0012(3)
Mo2 Mo6+ 0.0142(4) 0.0118(4) 0.0135(4) 0.0002(3) 0.0016(4) 0.0006(3)
Mo3 Mo6+ 0.0125(4) 0.0143(4) 0.0137(4) -0.0010(3) -0.0004(4) -0.0019(3)
Mo4 Mo6+ 0.0125(4) 0.0175(4) 0.0122(4) -0.0001(3) -0.0012(4) -0.0001(3)
Mo5 Mo6+ 0.0112(4) 0.0171(4) 0.0119(4) -0.0004(3) 0.0005(4) -0.0021(3)
Mo6 Mo6+ 0.0130(4) 0.0180(4) 0.0135(4) -0.0022(3) 0.0007(4) -0.0025(3)
Mo7 Mo6+ 0.0126(4) 0.0215(4) 0.0115(4) 0.0002(3) -0.0006(4) -0.0003(3)
Mo8 Mo6+ 0.0138(4) 0.0154(4) 0.0116(4) -0.0028(3) 0.0008(4) -0.0017(3)
Mo9 Mo6+ 0.0111(4) 0.0143(4) 0.0140(4) -0.0015(3) 0.0000(4) 0.0003(3)
Mo10 Mo6+ 0.0128(4) 0.0130(3) 0.0146(4) -0.0003(3) 0.0009(4) -0.0009(3)
Mo11 Mo6+ 0.0209(5) 0.0127(4) 0.0161(4) -0.0030(4) 0.0069(4) -0.0017(3)
Mo12 Mo6+ 0.0111(4) 0.0130(4) 0.0128(4) -0.0002(3) 0.0000(4) 0.0023(3)
In1 In3+ 0.0086(3) 0.0107(3) 0.0080(3) -0.0013(3) 0.0005(3) -0.0013(3)
Na1 Na1+ 0.0086(3) 0.0107(3) 0.0080(3) -0.0013(3) 0.0005(3) -0.0013(3)
In2 In3+ 0.0102(5) 0.0108(5) 0.0092(5) -0.0005(4) 0.0013(4) 0.0004(3)
Na2 Na1+ 0.0102(5) 0.0108(5) 0.0092(5) -0.0005(4) 0.0013(4) 0.0004(3)
In3 In3+ 0.0063(6) 0.0105(5) 0.0084(5) 0.0004(4) -0.0010(4) 0.0026(4)
Na3 Na1+ 0.0063(6) 0.0105(5) 0.0084(5) 0.0004(4) -0.0010(4) 0.0026(4)
In4 In3+ 0.0087(7) 0.0088(6) 0.0093(7) -0.0003(5) -0.0009(6) 0.0007(5)
Na4 Na1+ 0.0087(7) 0.0088(6) 0.0093(7) -0.0003(5) -0.0009(6) 0.0007(5)
In5 In3+ 0.012(2) 0.0101(18) 0.019(2) -0.0022(14) 0.0008(16) -0.0028(13)
Na5 Na1+ 0.012(2) 0.0101(18) 0.019(2) -0.0022(14) 0.0008(16) -0.0028(13)
In6 In3+ 0.0209(18) 0.0171(16) 0.0188(17) 0.0002(14) -0.0031(17) -0.0006(13)
Na6 Na1+ 0.0209(18) 0.0171(16) 0.0188(17) 0.0002(14) -0.0031(17) -0.0006(13)
Na7 Na1+ 0.014(2) 0.023(2) 0.0142(19) -0.0008(18) 0.0011(18) 0.0034(16)
Na8 Na1+ 0.016(2) 0.0183(19) 0.018(2) -0.0004(18) 0.0012(19) 0.0014(16)
Na9 Na1+ 0.022(2) 0.042(3) 0.024(2) -0.010(2) -0.004(2) 0.013(2)
Na10 Na1+ 0.025(2) 0.052(3) 0.024(3) -0.008(2) -0.006(2) 0.012(2)
Na11 Na1+ 0.022(3) 0.046(3) 0.036(3) 0.003(2) 0.000(2) -0.003(2)
Na12 Na1+ 0.021(2) 0.025(2) 0.022(2) 0.006(2) 0.005(2) -0.0008(18)
Na13 Na1+ 0.022(3) 0.038(3) 0.058(3) 0.006(2) 0.003(3) 0.017(3)
Na14 Na1+ 0.020(2) 0.025(2) 0.021(2) -0.0006(19) 0.004(2) 0.0014(18)
Na15 Na1+ 0.027(6) 0.051(9) 0.040(10) -0.007(6) 0.004(8) -0.024(7)
Na16 Na1+ 0.023(5) 0.033(7) 0.042(9) 0.005(5) -0.011(7) -0.007(5)
O1 O2- 0.037(5) 0.020(4) 0.026(4) 0.002(4) 0.003(4) -0.011(3)
O2 O2- 0.019(4) 0.030(4) 0.020(4) -0.002(3) -0.001(4) 0.012(3)
O3 O2- 0.033(5) 0.023(4) 0.022(4) 0.001(4) 0.009(4) 0.001(3)
O4 O2- 0.026(4) 0.026(4) 0.030(4) -0.005(3) 0.013(4) -0.003(3)
O5 O2- 0.015(4) 0.022(3) 0.032(4) -0.005(3) 0.002(3) 0.000(3)
O6 O2- 0.020(4) 0.020(3) 0.020(4) -0.007(3) 0.006(3) -0.001(3)
O7 O2- 0.026(4) 0.024(4) 0.034(5) -0.003(4) 0.011(4) 0.006(3)
O8 O2- 0.019(4) 0.024(4) 0.016(3) -0.005(3) 0.005(3) -0.001(3)
O9 O2- 0.024(4) 0.018(4) 0.041(5) -0.001(3) -0.002(4) 0.005(3)
O10 O2- 0.019(4) 0.030(4) 0.025(4) -0.007(3) 0.007(3) 0.003(3)
O11 O2- 0.028(4) 0.020(4) 0.023(4) -0.002(3) 0.000(4) -0.008(3)
O12 O2- 0.016(4) 0.031(4) 0.017(3) -0.005(3) 0.002(3) -0.002(3)
O13 O2- 0.025(4) 0.030(4) 0.029(4) -0.004(4) 0.008(4) 0.001(3)
O14 O2- 0.023(4) 0.024(4) 0.047(5) -0.004(4) -0.002(4) 0.010(4)
O15 O2- 0.015(4) 0.049(5) 0.031(4) -0.011(4) -0.001(4) -0.019(4)
O16 O2- 0.021(4) 0.020(3) 0.019(4) -0.003(3) -0.007(3) 0.001(3)
O17 O2- 0.011(3) 0.032(4) 0.031(4) 0.001(3) -0.006(3) 0.003(3)
O18 O2- 0.025(4) 0.024(4) 0.027(4) -0.011(3) -0.006(4) 0.008(3)
O19 O2- 0.022(4) 0.016(3) 0.017(3) -0.009(3) 0.000(3) -0.003(3)
O20 O2- 0.025(4) 0.030(4) 0.014(4) -0.001(3) -0.002(3) -0.005(3)
O21 O2- 0.029(4) 0.032(4) 0.021(4) -0.008(4) 0.003(4) -0.007(3)
O22 O2- 0.033(5) 0.019(4) 0.038(5) -0.002(4) -0.012(4) 0.000(3)
O23 O2- 0.017(4) 0.037(4) 0.024(4) -0.005(4) 0.007(4) -0.015(3)
O24 O2- 0.008(3) 0.025(4) 0.041(5) -0.001(3) 0.003(3) 0.002(3)
O25 O2- 0.011(4) 0.041(5) 0.030(4) 0.000(3) 0.001(4) -0.003(4)
O26 O2- 0.030(5) 0.025(4) 0.037(5) 0.009(4) -0.001(4) 0.010(4)
O27 O2- 0.018(4) 0.033(4) 0.014(4) 0.004(3) -0.001(3) 0.002(3)
O28 O2- 0.030(4) 0.032(4) 0.009(3) -0.009(4) -0.003(3) -0.003(3)
O29 O2- 0.025(4) 0.023(4) 0.029(4) -0.008(3) -0.007(4) 0.005(3)
O30 O2- 0.029(4) 0.031(4) 0.021(4) 0.001(4) 0.004(4) -0.002(3)
O31 O2- 0.027(4) 0.028(4) 0.030(4) -0.009(4) 0.002(4) -0.002(3)
O32 O2- 0.035(5) 0.027(4) 0.010(3) -0.016(4) 0.004(3) -0.005(3)
O33 O2- 0.029(4) 0.026(4) 0.019(4) -0.005(3) 0.005(4) -0.003(3)
O34 O2- 0.023(4) 0.015(3) 0.040(5) -0.003(3) -0.008(4) 0.009(3)
O35 O2- 0.024(4) 0.043(5) 0.018(4) -0.001(4) 0.000(3) -0.004(4)
O36 O2- 0.018(4) 0.023(4) 0.026(4) 0.002(3) 0.008(3) 0.005(3)
O37 O2- 0.025(4) 0.019(4) 0.040(5) 0.001(3) -0.008(4) 0.002(3)
O38 O2- 0.020(4) 0.022(4) 0.041(5) 0.000(3) 0.017(4) 0.002(4)
O39 O2- 0.025(4) 0.020(3) 0.011(3) -0.007(3) 0.000(3) -0.004(3)
O40 O2- 0.022(4) 0.018(3) 0.014(3) 0.000(3) 0.002(3) 0.004(3)
O41 O2- 0.065(8) 0.018(4) 0.089(9) -0.003(4) 0.049(7) -0.014(5)
O42 O2- 0.033(5) 0.024(4) 0.043(5) 0.009(4) -0.017(4) -0.001(4)
O43 O2- 0.019(4) 0.026(4) 0.020(4) -0.004(3) 0.004(3) -0.001(3)
O44 O2- 0.035(5) 0.035(4) 0.013(4) -0.018(4) 0.003(4) -0.002(3)
O45 O2- 0.023(4) 0.019(4) 0.036(5) -0.002(3) -0.001(4) -0.004(3)
O46 O2- 0.029(4) 0.023(4) 0.019(4) -0.003(3) 0.004(4) -0.001(3)
O47 O2- 0.016(4) 0.027(4) 0.017(4) 0.003(3) -0.001(3) 0.003(3)
O48 O2- 0.019(4) 0.018(3) 0.024(4) 0.003(3) -0.001(3) -0.001(3)
#End of TTdata_432016-ICSD