
#(C) 2019 by FIZ Karlsruhe - Leibniz Institute for Information Infrastructure.  All rights reserved.
data_432015-ICSD
_database_code_ICSD 432015
_audit_creation_date 2018-02-01
_chemical_name_systematic 'Sodium cesium scandium molybdate (25/8/5/24)'
_chemical_formula_structural 'Na25 Cs8 Sc5 (Mo O4)24'
_chemical_formula_sum 'Cs8 Mo24 Na25 O96 Sc5'
_exptl_crystal_density_diffrn 3.73
_cell_measurement_temperature 296.
_publ_section_title

;
New alluaudite-related triple molybdates Na25Cs8R5(MoO4)24 (R = Sc, In):
synthesis, crystal structures and properties
;
loop_
_citation_id
_citation_journal_full
_citation_year
_citation_journal_volume
_citation_page_first
_citation_page_last
_citation_journal_id_ASTM
primary 'New Journal of Chemistry' 2017 41 5450 5457 NJCHE5
loop_
_publ_author_name
'Savina, Aleksandra A.'
'Solodovnikov, Sergey F.'
'Belov, Dmitry A.'
'Solodovnikova, Zoya A.'
'Stefanovich, Sergey Yu.'
'Lazoryak, Bogdan I.'
'Khaikina, Elena G.'
_cell_length_a 14.0069(3)
_cell_length_b 12.6498(3)
_cell_length_c 28.6491(6)
_cell_angle_alpha 90.
_cell_angle_beta 90.0070(10)
_cell_angle_gamma 90.
_cell_volume 5076.17
_cell_formula_units_Z 2
_symmetry_space_group_name_H-M 'P 1 21/c 1'
_symmetry_Int_Tables_number 14
_refine_ls_R_factor_all 0.0308
loop_
_symmetry_equiv_pos_site_id
_symmetry_equiv_pos_as_xyz
1 'x, -y+1/2, z+1/2'
2 '-x, -y, -z'
3 '-x, y+1/2, -z+1/2'
4 'x, y, z'
loop_
_atom_type_symbol
_atom_type_oxidation_number
Cs1+ 1
Mo6+ 6
Sc3+ 3
Na1+ 1
Sc3+ 3
Na1+ 1
Sc3+ 3
Na1+ 1
Sc3+ 3
Na1+ 1
Sc3+ 3
Na1+ 1
Sc3+ 3
Na1+ 1
O2- -2
loop_
_atom_site_label
_atom_site_type_symbol
_atom_site_symmetry_multiplicity
_atom_site_Wyckoff_symbol
_atom_site_fract_x
_atom_site_fract_y
_atom_site_fract_z
_atom_site_B_iso_or_equiv
_atom_site_occupancy
_atom_site_attached_hydrogens
Cs1 Cs1+ 4 e 0.48727(3) 0.98108(3) 0.432226(17) 0.02608(9) 1 0
Cs2 Cs1+ 4 e 0.50603(4) 0.95377(4) 0.28253(2) 0.03690(12) 1 0
Cs3 Cs1+ 4 e 0.00867(4) 0.95015(4) 0.215800(19) 0.03035(10) 1 0
Cs4 Cs1+ 4 e 0.00611(4) 0.46959(4) 0.431750(17) 0.02877(10) 1 0
Mo1 Mo6+ 4 e 0.60185(4) 0.18473(4) 0.21950(2) 0.01749(11) 1 0
Mo2 Mo6+ 4 e 0.10938(4) 0.18166(4) 0.279731(19) 0.01529(10) 1 0
Mo3 Mo6+ 4 e 0.61231(4) 0.24187(5) 0.471285(19) 0.01580(10) 1 0
Mo4 Mo6+ 4 e 0.38968(4) 0.20063(5) 0.347205(19) 0.01637(11) 1 0
Mo5 Mo6+ 4 e 0.61247(4) 0.72625(4) 0.396559(19) 0.01528(10) 1 0
Mo6 Mo6+ 4 e 0.10279(4) 0.26485(4) 0.52728(2) 0.01580(10) 1 0
Mo7 Mo6+ 4 e 0.88169(4) 0.21549(4) 0.398102(19) 0.01506(10) 1 0
Mo8 Mo6+ 4 e 0.11154(4) 0.69466(4) 0.350965(19) 0.01548(11) 1 0
Mo9 Mo6+ 4 e 0.28441(4) 0.56432(4) 0.68396(2) 0.01512(10) 1 0
Mo10 Mo6+ 4 e 0.28498(4) 0.48102(4) 0.44278(2) 0.01539(10) 1 0
Mo11 Mo6+ 4 e 0.22201(4) 0.43293(5) 0.18662(2) 0.01916(12) 1 0
Mo12 Mo6+ 4 e 0.79029(4) 0.47039(4) 0.05627(2) 0.01503(10) 1 0
Sc1 Sc3+ 4 e 0.83804(9) 0.29014(10) 0.52000(4) 0.0097(2) 0.7918(18) 0
Na1 Na1+ 4 e 0.83804(9) 0.29014(10) 0.52000(4) 0.0097(2) 0.21 0
Sc2 Sc3+ 4 e 0.65527(11) 0.17249(12) 0.34880(5) 0.0114(4) 0.538(5) 0
Na2 Na1+ 4 e 0.65527(11) 0.17249(12) 0.34880(5) 0.0114(4) 0.46 0
Sc3 Sc3+ 4 e 0.33067(10) 0.19562(12) 0.22798(5) 0.0124(4) 0.580(5) 0
Na3 Na1+ 4 e 0.33067(10) 0.19562(12) 0.22798(5) 0.0124(4) 0.42 0
Sc4 Sc3+ 4 e 0.15663(15) 0.17356(17) 0.14868(7) 0.0166(6) 0.242(5) 0
Na4 Na1+ 4 e 0.15663(15) 0.17356(17) 0.14868(7) 0.0166(6) 0.76 0
Sc5 Sc3+ 4 e 0.83103(18) 0.1987(2) 0.26752(9) 0.0217(8) 0.097(5) 0
Na5 Na1+ 4 e 0.83103(18) 0.1987(2) 0.26752(9) 0.0217(8) 0.9 0
Sc6 Sc3+ 4 e 0.33561(17) 0.21187(19) 0.48025(8) 0.0249(6) 0.251(4) 0
Na6 Na1+ 4 e 0.33561(17) 0.21187(19) 0.48025(8) 0.0249(6) 0.75 0
Na7 Na1+ 4 e 0.15861(19) 0.2370(2) 0.39485(10) 0.0209(6) 1 0
Na8 Na1+ 4 e 0.34087(19) 0.7409(2) 0.39466(10) 0.0180(5) 1 0
Na9 Na1+ 4 e 0.7636(2) 0.9683(3) 0.43321(12) 0.0336(8) 1 0
Na10 Na1+ 4 e 0.7337(2) 0.4917(3) 0.43834(12) 0.0376(8) 1 0
Na11 Na1+ 4 e 0.0014(2) 0.9673(3) 0.36827(13) 0.0369(8) 1 0
Na12 Na1+ 4 e 0.2315(2) 0.9387(3) 0.31491(10) 0.0251(6) 1 0
Na13 Na1+ 4 e 0.5026(2) 0.9727(3) 0.12860(13) 0.0405(9) 1 0
Na14 Na1+ 4 e 0.2660(2) 0.4430(3) 0.31504(11) 0.0261(6) 1 0
Na15 Na1+ 4 e -0.0069(8) 0.0147(9) 0.4899(3) 0.037(2) 0.5 0
Na16 Na1+ 4 e 0.5054(7) 0.5180(7) 0.4898(3) 0.033(2) 0.5 0
O1 O2- 4 e 0.5989(4) 0.0699(4) 0.1861(2) 0.0315(12) 1 0
O2 O2- 4 e 0.6570(4) 0.2884(4) 0.18919(18) 0.0263(11) 1 0
O3 O2- 4 e 0.6631(4) 0.1561(4) 0.27218(19) 0.0277(11) 1 0
O4 O2- 4 e 0.4822(4) 0.2226(4) 0.23370(19) 0.0294(12) 1 0
O5 O2- 4 e -0.0050(4) 0.2158(4) 0.26191(18) 0.0258(10) 1 0
O6 O2- 4 e 0.1560(4) 0.2876(4) 0.31159(18) 0.0251(11) 1 0
O7 O2- 4 e 0.1035(4) 0.0662(4) 0.31343(19) 0.0299(12) 1 0
O8 O2- 4 e 0.1787(4) 0.1562(4) 0.22706(18) 0.0265(11) 1 0
O9 O2- 4 e 0.5952(4) 0.3727(4) 0.45449(19) 0.0289(12) 1 0
O10 O2- 4 e 0.5030(4) 0.1866(4) 0.48736(18) 0.0265(11) 1 0
O11 O2- 4 e 0.6590(4) 0.1627(5) 0.4260(2) 0.0313(12) 1 0
O12 O2- 4 e 0.6910(3) 0.2385(4) 0.52054(17) 0.0238(10) 1 0
O13 O2- 4 e 0.3260(4) 0.1800(4) 0.39881(18) 0.0302(12) 1 0
O14 O2- 4 e 0.4004(4) 0.3363(4) 0.3372(2) 0.0336(13) 1 0
O15 O2- 4 e 0.3289(4) 0.1368(5) 0.3002(2) 0.0379(15) 1 0
O16 O2- 4 e 0.5040(4) 0.1393(4) 0.35314(17) 0.0256(11) 1 0
O17 O2- 4 e 0.5007(4) 0.7775(4) 0.38172(17) 0.0270(11) 1 0
O18 O2- 4 e 0.6002(4) 0.5959(4) 0.41661(19) 0.0273(11) 1 0
O19 O2- 4 e 0.6621(4) 0.8112(4) 0.43861(17) 0.0247(11) 1 0
O20 O2- 4 e 0.6868(4) 0.7266(4) 0.34545(17) 0.0252(11) 1 0
O21 O2- 4 e 0.1655(4) 0.2730(5) 0.47511(19) 0.0356(13) 1 0
O22 O2- 4 e 0.0939(4) 0.1336(4) 0.5446(2) 0.0324(13) 1 0
O23 O2- 4 e 0.1615(4) 0.3438(5) 0.5689(2) 0.0287(12) 1 0
O24 O2- 4 e -0.0150(4) 0.3201(4) 0.51803(17) 0.0249(10) 1 0
O25 O2- 4 e 0.9927(4) 0.2642(4) 0.38213(18) 0.0277(11) 1 0
O26 O2- 4 e 0.8946(4) 0.0833(4) 0.41351(19) 0.0291(12) 1 0
O27 O2- 4 e 0.8054(4) 0.2236(4) 0.34869(17) 0.0261(11) 1 0
O28 O2- 4 e 0.8374(3) 0.2946(4) 0.44575(17) 0.0226(10) 1 0
O29 O2- 4 e 0.0995(4) 0.8261(4) 0.33461(19) 0.0275(11) 1 0
O30 O2- 4 e 0.1766(4) 0.6218(5) 0.30988(19) 0.0334(13) 1 0
O31 O2- 4 e -0.0007(4) 0.6345(4) 0.35555(18) 0.0280(11) 1 0
O32 O2- 4 e 0.1716(4) 0.6870(4) 0.40628(18) 0.0269(11) 1 0
O33 O2- 4 e 0.2203(4) 0.6177(4) 0.73059(17) 0.0244(10) 1 0
O34 O2- 4 e 0.3597(4) 0.4646(5) 0.7057(2) 0.0351(13) 1 0
O35 O2- 4 e 0.2036(4) 0.5105(5) 0.64308(19) 0.0324(12) 1 0
O36 O2- 4 e 0.3633(4) 0.6558(5) 0.6567(2) 0.0324(13) 1 0
O37 O2- 4 e 0.3526(4) 0.3910(4) 0.4746(2) 0.0332(13) 1 0
O38 O2- 4 e 0.3695(4) 0.5671(4) 0.4194(2) 0.0304(12) 1 0
O39 O2- 4 e 0.2198(4) 0.4223(4) 0.39723(16) 0.0238(10) 1 0
O40 O2- 4 e 0.2056(4) 0.5485(4) 0.48337(16) 0.0209(9) 1 0
O41 O2- 4 e 0.1475(5) 0.5245(5) 0.2131(3) 0.060(2) 1 0
O42 O2- 4 e 0.1432(4) 0.3549(5) 0.1547(2) 0.0351(14) 1 0
O43 O2- 4 e 0.3029(4) 0.4989(5) 0.14797(19) 0.0328(12) 1 0
O44 O2- 4 e 0.2863(4) 0.3651(5) 0.23200(18) 0.0342(13) 1 0
O45 O2- 4 e 0.8735(4) 0.5603(4) 0.0778(2) 0.0315(12) 1 0
O46 O2- 4 e 0.7231(4) 0.4194(4) 0.10259(16) 0.0212(10) 1 0
O47 O2- 4 e 0.7120(4) 0.5298(4) 0.01510(17) 0.0210(10) 1 0
O48 O2- 4 e 0.8637(3) 0.3724(4) 0.02735(18) 0.0244(10) 1 0
loop_
_atom_site_aniso_label
_atom_site_aniso_type_symbol
_atom_site_aniso_U_11
_atom_site_aniso_U_22
_atom_site_aniso_U_33
_atom_site_aniso_U_12
_atom_site_aniso_U_13
_atom_site_aniso_U_23
Cs1 Cs1+ 0.0301(2) 0.01990(19) 0.0282(2) -0.00086(17) 0.00150(18) 0.00007(16)
Cs2 Cs1+ 0.0327(3) 0.0253(2) 0.0527(3) -0.0038(2) 0.0067(3) -0.0034(2)
Cs3 Cs1+ 0.0244(2) 0.0215(2) 0.0451(3) -0.00348(18) -0.0020(2) 0.00328(19)
Cs4 Cs1+ 0.0334(2) 0.0224(2) 0.0305(2) -0.00290(18) 0.0003(2) 0.00045(16)
Mo1 Mo6+ 0.0190(3) 0.0169(2) 0.0166(3) -0.0036(2) 0.0042(2) -0.0004(2)
Mo2 Mo6+ 0.0173(2) 0.0135(2) 0.0151(2) -0.00037(19) 0.0011(2) 0.00003(19)
Mo3 Mo6+ 0.0153(2) 0.0161(2) 0.0161(2) -0.0008(2) -0.0004(2) -0.00266(19)
Mo4 Mo6+ 0.0152(2) 0.0196(3) 0.0143(2) 0.0012(2) -0.00143(19) -0.00029(19)
Mo5 Mo6+ 0.0141(2) 0.0174(2) 0.0143(2) -0.0009(2) 0.00109(19) -0.00318(19)
Mo6 Mo6+ 0.0167(2) 0.0158(2) 0.0150(2) -0.0017(2) 0.0006(2) -0.00228(19)
Mo7 Mo6+ 0.0143(2) 0.0173(2) 0.0136(2) 0.0005(2) 0.00008(19) -0.00197(19)
Mo8 Mo6+ 0.0156(2) 0.0160(2) 0.0149(2) -0.0026(2) 0.0015(2) -0.00085(19)
Mo9 Mo6+ 0.0139(2) 0.0162(2) 0.0152(2) -0.0017(2) -0.0009(2) 0.00042(19)
Mo10 Mo6+ 0.0145(2) 0.0148(2) 0.0170(3) 0.00004(19) 0.0010(2) -0.00142(19)
Mo11 Mo6+ 0.0226(3) 0.0153(3) 0.0196(3) -0.0021(2) 0.0078(2) -0.0019(2)
Mo12 Mo6+ 0.0144(2) 0.0148(2) 0.0159(2) -0.00092(19) -0.0004(2) 0.00351(19)
Sc1 Sc3+ 0.0097(5) 0.0095(5) 0.0101(6) -0.0021(4) 0.0008(4) -0.0017(4)
Na1 Na1+ 0.0097(5) 0.0095(5) 0.0101(6) -0.0021(4) 0.0008(4) -0.0017(4)
Sc2 Sc3+ 0.0120(7) 0.0116(8) 0.0107(8) -0.0009(5) 0.0006(5) -0.0002(5)
Na2 Na1+ 0.0120(7) 0.0116(8) 0.0107(8) -0.0009(5) 0.0006(5) -0.0002(5)
Sc3 Sc3+ 0.0104(7) 0.0143(7) 0.0126(7) -0.0007(5) -0.0012(5) 0.0023(5)
Na3 Na1+ 0.0104(7) 0.0143(7) 0.0126(7) -0.0007(5) -0.0012(5) 0.0023(5)
Sc4 Sc3+ 0.0164(11) 0.0159(11) 0.0174(11) -0.0015(8) -0.0001(8) 0.0013(8)
Na4 Na1+ 0.0164(11) 0.0159(11) 0.0174(11) -0.0015(8) -0.0001(8) 0.0013(8)
Sc5 Sc3+ 0.0218(13) 0.0175(13) 0.0259(14) -0.0029(10) 0.0021(10) -0.0067(10)
Na5 Na1+ 0.0218(13) 0.0175(13) 0.0259(14) -0.0029(10) 0.0021(10) -0.0067(10)
Sc6 Sc3+ 0.0279(12) 0.0237(12) 0.0230(12) 0.0008(9) -0.0010(9) 0.0008(9)
Na6 Na1+ 0.0279(12) 0.0237(12) 0.0230(12) 0.0008(9) -0.0010(9) 0.0008(9)
Na7 Na1+ 0.0171(12) 0.0285(15) 0.0171(13) 0.0012(11) 0.0006(11) 0.0039(11)
Na8 Na1+ 0.0156(12) 0.0190(13) 0.0194(13) -0.0015(10) -0.0001(10) -0.0009(11)
Na9 Na1+ 0.0285(15) 0.049(2) 0.0235(15) -0.0141(14) -0.0035(12) 0.0100(13)
Na10 Na1+ 0.0265(14) 0.061(2) 0.0251(15) -0.0058(15) -0.0014(13) 0.0138(15)
Na11 Na1+ 0.0218(16) 0.0419(19) 0.0471(19) 0.0009(14) -0.0011(15) -0.0126(15)
Na12 Na1+ 0.0215(13) 0.0303(15) 0.0234(15) 0.0053(13) 0.0024(12) 0.0019(12)
Na13 Na1+ 0.0225(16) 0.049(2) 0.050(2) 0.0086(15) -0.0011(15) 0.0174(16)
Na14 Na1+ 0.0226(13) 0.0296(15) 0.0262(16) 0.0001(13) 0.0003(12) 0.0038(13)
Na15 Na1+ 0.023(4) 0.051(7) 0.038(7) -0.004(4) 0.004(5) -0.021(5)
Na16 Na1+ 0.015(3) 0.045(6) 0.039(6) 0.009(4) -0.006(4) -0.021(4)
O1 O2- 0.028(3) 0.028(3) 0.038(3) 0.000(2) 0.000(3) -0.012(2)
O2 O2- 0.023(2) 0.031(3) 0.025(3) -0.011(2) -0.003(2) 0.012(2)
O3 O2- 0.029(3) 0.029(3) 0.025(3) -0.002(2) 0.005(2) 0.006(2)
O4 O2- 0.032(3) 0.023(2) 0.033(3) -0.005(2) 0.013(2) -0.001(2)
O5 O2- 0.020(2) 0.025(2) 0.032(3) -0.003(2) -0.003(2) 0.0005(19)
O6 O2- 0.023(2) 0.027(3) 0.025(3) -0.004(2) 0.003(2) -0.004(2)
O7 O2- 0.030(3) 0.027(3) 0.033(3) 0.004(2) 0.008(2) 0.012(2)
O8 O2- 0.031(3) 0.032(3) 0.017(2) 0.000(2) 0.009(2) -0.003(2)
O9 O2- 0.029(3) 0.022(2) 0.035(3) -0.002(2) 0.004(2) 0.008(2)
O10 O2- 0.021(2) 0.024(2) 0.035(3) -0.0008(19) 0.005(2) 0.0016(19)
O11 O2- 0.026(3) 0.033(3) 0.035(3) 0.000(2) 0.001(2) -0.017(2)
O12 O2- 0.026(2) 0.029(3) 0.016(2) 0.000(2) -0.0030(18) -0.0051(18)
O13 O2- 0.038(3) 0.034(3) 0.019(2) -0.001(2) 0.004(2) 0.001(2)
O14 O2- 0.028(3) 0.020(3) 0.053(4) 0.003(2) 0.000(3) 0.011(2)
O15 O2- 0.020(2) 0.058(4) 0.036(3) -0.002(3) 0.000(2) -0.027(3)
O16 O2- 0.030(3) 0.021(2) 0.026(3) 0.006(2) -0.005(2) -0.0016(19)
O17 O2- 0.016(2) 0.036(3) 0.029(3) 0.000(2) -0.001(2) -0.003(2)
O18 O2- 0.024(2) 0.022(2) 0.037(3) -0.003(2) -0.004(2) 0.005(2)
O19 O2- 0.028(2) 0.026(3) 0.020(2) -0.008(2) 0.0036(19) -0.0034(19)
O20 O2- 0.026(2) 0.033(3) 0.017(2) -0.001(2) 0.0032(19) -0.002(2)
O21 O2- 0.039(3) 0.043(3) 0.024(3) -0.006(3) 0.007(2) -0.004(2)
O22 O2- 0.029(3) 0.021(3) 0.047(3) -0.003(2) -0.007(3) 0.006(2)
O23 O2- 0.020(2) 0.032(3) 0.035(3) -0.002(2) -0.001(2) -0.014(2)
O24 O2- 0.024(2) 0.021(2) 0.030(2) -0.0042(19) -0.009(2) 0.0032(19)
O25 O2- 0.024(2) 0.024(2) 0.036(3) 0.001(2) 0.007(2) -0.004(2)
O26 O2- 0.035(3) 0.017(2) 0.035(3) 0.004(2) 0.005(2) 0.005(2)
O27 O2- 0.022(2) 0.037(3) 0.019(2) 0.003(2) -0.0015(19) -0.001(2)
O28 O2- 0.021(2) 0.027(3) 0.019(2) -0.0021(19) 0.0040(18) -0.0072(19)
O29 O2- 0.027(3) 0.022(2) 0.034(3) -0.005(2) -0.006(2) 0.008(2)
O30 O2- 0.034(3) 0.042(3) 0.024(3) 0.008(2) 0.007(2) -0.004(2)
O31 O2- 0.028(3) 0.025(2) 0.032(3) -0.004(2) 0.009(2) 0.008(2)
O32 O2- 0.030(3) 0.030(3) 0.021(2) -0.003(2) 0.000(2) -0.001(2)
O33 O2- 0.028(2) 0.029(3) 0.017(2) -0.005(2) 0.0025(19) -0.0035(19)
O34 O2- 0.036(3) 0.026(3) 0.043(3) 0.001(2) -0.013(2) 0.004(2)
O35 O2- 0.025(3) 0.051(3) 0.021(2) 0.000(2) -0.010(2) -0.012(2)
O36 O2- 0.026(3) 0.029(3) 0.042(3) 0.005(2) 0.012(2) 0.005(2)
O37 O2- 0.032(3) 0.028(3) 0.040(3) -0.001(2) -0.011(2) 0.006(2)
O38 O2- 0.028(3) 0.022(3) 0.042(3) -0.004(2) 0.014(2) -0.007(2)
O39 O2- 0.030(3) 0.026(2) 0.016(2) 0.001(2) 0.004(2) -0.0060(19)
O40 O2- 0.028(2) 0.020(2) 0.014(2) -0.0007(19) 0.0006(19) 0.0013(17)
O41 O2- 0.063(4) 0.020(3) 0.097(6) -0.010(3) 0.056(4) -0.017(3)
O42 O2- 0.034(3) 0.036(3) 0.035(3) 0.011(2) -0.019(2) -0.009(3)
O43 O2- 0.025(3) 0.049(3) 0.025(3) 0.006(2) 0.006(2) 0.006(2)
O44 O2- 0.043(3) 0.045(3) 0.015(2) -0.024(3) -0.006(2) 0.002(2)
O45 O2- 0.027(3) 0.027(3) 0.041(3) -0.005(2) -0.010(2) -0.004(2)
O46 O2- 0.025(2) 0.020(2) 0.019(2) -0.0002(19) 0.004(2) 0.0000(19)
O47 O2- 0.020(2) 0.025(2) 0.018(2) 0.0026(19) -0.0038(18) 0.0018(17)
O48 O2- 0.022(2) 0.022(2) 0.029(3) 0.0019(18) 0.0080(19) 0.003(2)
#End of TTdata_432015-ICSD