
#(C) 2019 by FIZ Karlsruhe - Leibniz Institute for Information Infrastructure.  All rights reserved.
data_432010-ICSD
_database_code_ICSD 432010
_audit_creation_date 2018-02-01
_chemical_name_systematic 'Sodium tantalum(V) fluoride (7/3/22)'
_chemical_formula_structural 'Na7 Ta F8 (Ta F7)2'
_chemical_formula_sum 'F22 Na7 Ta3'
_exptl_crystal_density_diffrn 4.7
_cell_measurement_temperature 150.
_publ_section_title

;
(N2H6)3TaF8TaF7HF2 and Na7TaF8(TaF7)2: Novel fluoride tantalates with
different isolated anionic polyhedra
;
loop_
_citation_id
_citation_journal_full
_citation_year
_citation_journal_volume
_citation_page_first
_citation_page_last
_citation_journal_id_ASTM
primary 'Journal of Fluorine Chemistry' 2017 195 13 17 JFLCAR
loop_
_publ_author_name
'Goreshnik, E.'
_cell_length_a 7.66154(16)
_cell_length_b 26.4269(6)
_cell_length_c 7.83676(19)
_cell_angle_alpha 90
_cell_angle_beta 92.757(2)
_cell_angle_gamma 90
_cell_volume 1584.87
_cell_formula_units_Z 4
_symmetry_space_group_name_H-M 'P 1 21/m 1'
_symmetry_Int_Tables_number 11
_refine_ls_R_factor_all 0.0334
loop_
_symmetry_equiv_pos_site_id
_symmetry_equiv_pos_as_xyz
1 'x, -y+1/2, z'
2 '-x, -y, -z'
3 '-x, y+1/2, -z'
4 'x, y, z'
loop_
_atom_type_symbol
_atom_type_oxidation_number
Ta5+ 5
Na1+ 1
F1- -1
loop_
_atom_site_label
_atom_site_type_symbol
_atom_site_symmetry_multiplicity
_atom_site_Wyckoff_symbol
_atom_site_fract_x
_atom_site_fract_y
_atom_site_fract_z
_atom_site_B_iso_or_equiv
_atom_site_occupancy
_atom_site_attached_hydrogens
Ta1 Ta5+ 2 e -0.39058(5) 0.25 0.89173(5) 0.00394(9) 1 0
Ta2 Ta5+ 2 e 0.11156(5) 0.25 1.37788(5) 0.00476(9) 1 0
Ta3 Ta5+ 4 f 0.11732(3) 0.07091(2) 0.88922(3) 0.00327(7) 1 0
Ta4 Ta5+ 4 f -0.37764(3) 0.07163(2) 0.39200(3) 0.00353(7) 1 0
Na1 Na1+ 2 e -0.8609(6) 0.25 0.8982(6) 0.0171(10) 1 0
Na2 Na1+ 2 e -0.3558(6) 0.25 1.3658(6) 0.0170(10) 1 0
Na3 Na1+ 4 f -0.1223(4) 0.15767(12) 1.1091(4) 0.0137(6) 1 0
Na4 Na1+ 4 f -0.5721(4) 0.15709(12) 0.6426(4) 0.0132(6) 1 0
Na5 Na1+ 4 f -0.4008(4) 0.04846(11) 0.8878(4) 0.0081(6) 1 0
Na6 Na1+ 4 f -0.0892(4) 0.15985(13) 0.6168(4) 0.0162(7) 1 0
Na7 Na1+ 4 f 0.3779(4) 0.15984(13) 1.1497(5) 0.0195(7) 1 0
Na8 Na1+ 4 f 0.1063(4) 0.04855(11) 1.3808(4) 0.0083(6) 1 0
F1 F1- 2 e -0.1392(9) 0.25 0.9526(9) 0.0189(15) 1 0
F2 F1- 2 e -0.4491(10) 0.25 0.6434(9) 0.0215(16) 1 0
F3 F1- 4 f -0.3006(6) 0.18575(19) 0.8001(7) 0.0201(11) 1 0
F4 F1- 4 f -0.6041(6) 0.20541(17) 0.8827(5) 0.0099(9) 1 0
F5 F1- 4 f -0.3766(6) 0.20478(18) 1.0997(6) 0.0147(10) 1 0
F6 F1- 4 f 0.2035(7) 0.1874(2) 1.4843(7) 0.0224(11) 1 0
F7 F1- 2 e 0.3626(9) 0.25 1.3285(10) 0.0251(17) 1 0
F8 F1- 4 f -0.0993(6) 0.20525(17) 1.3690(6) 0.0110(9) 1 0
F9 F1- 2 e 0.0355(10) 0.25 1.6198(9) 0.0199(15) 1 0
F10 F1- 4 f 0.1249(6) 0.20479(18) 1.1709(6) 0.0156(10) 1 0
F11 F1- 4 f -0.1192(5) 0.07943(17) 0.9582(6) 0.0096(8) 1 0
F12 F1- 4 f 0.0071(6) 0.00828(18) 0.8168(6) 0.0133(9) 1 0
F13 F1- 4 f 0.0737(6) 0.08281(18) 0.6471(5) 0.0112(9) 1 0
F14 F1- 4 f 0.2829(6) 0.01960(17) 0.9692(6) 0.0136(9) 1 0
F15 F1- 4 f 0.3455(5) 0.09835(16) 0.8367(6) 0.0093(8) 1 0
F16 F1- 4 f 0.1642(6) 0.09228(17) 1.1266(5) 0.0100(9) 1 0
F17 F1- 4 f 0.0735(6) 0.14584(17) 0.8753(6) 0.0107(9) 1 0
F18 F1- 4 f -0.4891(6) 0.01043(18) 0.3094(6) 0.0149(9) 1 0
F19 F1- 4 f -0.6166(6) 0.08072(17) 0.4534(6) 0.0115(9) 1 0
F20 F1- 4 f -0.2155(6) 0.01909(18) 0.4643(6) 0.0143(9) 1 0
F21 F1- 4 f -0.4247(6) 0.08874(18) 0.1524(5) 0.0122(9) 1 0
F22 F1- 4 f -0.3353(6) 0.08850(18) 0.6328(5) 0.0125(9) 1 0
F23 F1- 4 f -0.1489(6) 0.09887(16) 0.3386(6) 0.0091(8) 1 0
F24 F1- 4 f -0.4139(6) 0.14722(17) 0.3986(6) 0.0118(9) 1 0
loop_
_atom_site_aniso_label
_atom_site_aniso_type_symbol
_atom_site_aniso_U_11
_atom_site_aniso_U_22
_atom_site_aniso_U_33
_atom_site_aniso_U_12
_atom_site_aniso_U_13
_atom_site_aniso_U_23
Ta1 Ta5+ 0.00260(17) 0.00401(18) 0.00527(19) 0. 0.00077(14) 0.
Ta2 Ta5+ 0.00341(18) 0.00530(19) 0.00561(19) 0. 0.00052(14) 0.
Ta3 Ta5+ 0.00346(13) 0.00355(13) 0.00288(13) 0.00028(9) 0.00085(10) -0.00028(9)
Ta4 Ta5+ 0.00407(13) 0.00386(13) 0.00272(13) 0.00063(9) 0.00075(10) -0.00022(9)
Na1 Na1+ 0.008(2) 0.034(3) 0.009(2) 0. 0.0014(17) 0.
Na2 Na1+ 0.0038(19) 0.032(3) 0.015(2) 0. 0.0010(16) 0.
Na3 Na1+ 0.0178(16) 0.0097(15) 0.0143(16) -0.0003(12) 0.0080(12) -0.0016(11)
Na4 Na1+ 0.0184(16) 0.0092(15) 0.0124(15) -0.0003(12) 0.0051(12) -0.0001(11)
Na5 Na1+ 0.0086(13) 0.0066(14) 0.0090(14) 0.0007(11) -0.0014(11) -0.0001(10)
Na6 Na1+ 0.0177(16) 0.0159(17) 0.0149(16) 0.0053(13) -0.0010(13) 0.0037(12)
Na7 Na1+ 0.0126(16) 0.0105(16) 0.035(2) 0.0017(13) 0.0016(14) 0.0073(14)
Na8 Na1+ 0.0102(14) 0.0074(14) 0.0070(14) -0.0001(11) -0.0007(11) 0.0006(10)
F1 F1- 0.010(3) 0.025(4) 0.022(4) 0. 0.003(3) 0.
F2 F1- 0.021(4) 0.031(4) 0.013(3) 0. 0.006(3) 0.
F3 F1- 0.016(2) 0.015(2) 0.031(3) 0.001(2) 0.011(2) -0.007(2)
F4 F1- 0.010(2) 0.010(2) 0.010(2) -0.0041(17) 0.0027(16) -0.0015(16)
F5 F1- 0.017(2) 0.016(2) 0.011(2) -0.0013(19) 0.0027(18) 0.0067(18)
F6 F1- 0.023(3) 0.018(3) 0.026(3) 0.004(2) -0.007(2) 0.004(2)
F7 F1- 0.010(3) 0.033(5) 0.032(4) 0. 0.002(3) 0.
F8 F1- 0.009(2) 0.010(2) 0.014(2) -0.0027(17) -0.0002(17) 0.0009(17)
F9 F1- 0.024(4) 0.024(4) 0.012(3) 0. 0.002(3) 0.
F10 F1- 0.019(2) 0.014(2) 0.014(2) 0.0015(19) 0.0022(18) -0.0038(18)
F11 F1- 0.007(2) 0.007(2) 0.014(2) -0.0006(16) 0.0009(16) -0.0011(16)
F12 F1- 0.016(2) 0.011(2) 0.013(2) -0.0025(18) -0.0017(17) -0.0012(17)
F13 F1- 0.013(2) 0.015(2) 0.006(2) 0.0018(18) -0.0010(16) 0.0003(17)
F14 F1- 0.012(2) 0.009(2) 0.020(2) 0.0023(17) -0.0024(18) 0.0045(18)
F15 F1- 0.007(2) 0.005(2) 0.016(2) -0.0008(16) 0.0004(16) 0.0030(16)
F16 F1- 0.013(2) 0.009(2) 0.008(2) -0.0018(17) -0.0020(16) -0.0002(16)
F17 F1- 0.010(2) 0.008(2) 0.014(2) 0.0017(17) 0.0042(16) -0.0013(16)
F18 F1- 0.023(2) 0.009(2) 0.013(2) -0.0039(19) -0.0019(18) -0.0030(17)
F19 F1- 0.007(2) 0.011(2) 0.017(2) -0.0010(17) 0.0007(17) -0.0042(17)
F20 F1- 0.014(2) 0.010(2) 0.018(2) 0.0049(18) -0.0031(18) 0.0011(18)
F21 F1- 0.015(2) 0.017(2) 0.005(2) -0.0003(18) -0.0029(16) -0.0003(17)
F22 F1- 0.016(2) 0.015(2) 0.006(2) 0.0006(18) -0.0028(17) -0.0012(17)
F23 F1- 0.009(2) 0.006(2) 0.012(2) 0.0006(16) -0.0003(16) -0.0001(16)
F24 F1- 0.017(2) 0.005(2) 0.014(2) 0.0027(17) 0.0095(17) 0.0002(16)
#End of TTdata_432010-ICSD