
#(C) 2019 by FIZ Karlsruhe - Leibniz Institute for Information Infrastructure.  All rights reserved.
data_432286-ICSD
_database_code_ICSD 432286
_audit_creation_date 2018-08-01
_chemical_name_systematic 'Trisodium praseodymium bis(phosphate)'
_chemical_formula_structural 'Na3 Pr (P O4)2'
_chemical_formula_sum 'Na3 O8 P2 Pr1'
_exptl_crystal_density_diffrn 3.83
_cell_measurement_temperature 293.
_publ_section_title
'Commensurately modulated structure and luminescent properties of Na3Pr(PO4)2'
loop_
_citation_id
_citation_journal_full
_citation_year
_citation_journal_volume
_citation_page_first
_citation_page_last
_citation_journal_id_ASTM
primary 'Journal of Luminescence' 2017 192 129 135 JLUMA8
loop_
_publ_author_name
'Zhao, Dan'
'Ma, Fa-Xue'
'Duan, Pei-Gao'
'Nie, Cong-Kui'
'Guo, Jian-Feng'
'Zhang, Rui-Juan'
_cell_length_a 14.0131(3)
_cell_length_b 5.3303(7)
_cell_length_c 18.5858(9)
_cell_angle_alpha 90
_cell_angle_beta 90
_cell_angle_gamma 90
_cell_volume 1388.24
_cell_formula_units_Z 8
_symmetry_space_group_name_H-M 'P c a 21'
_symmetry_Int_Tables_number 29
_refine_ls_R_factor_all 0.0321
loop_
_symmetry_equiv_pos_site_id
_symmetry_equiv_pos_as_xyz
1 'x+1/2, -y, z'
2 '-x+1/2, y, z+1/2'
3 '-x, -y, z+1/2'
4 'x, y, z'
loop_
_atom_type_symbol
_atom_type_oxidation_number
Pr3+ 3
P5+ 5
Na1+ 1
O2- -2
loop_
_atom_site_label
_atom_site_type_symbol
_atom_site_symmetry_multiplicity
_atom_site_Wyckoff_symbol
_atom_site_fract_x
_atom_site_fract_y
_atom_site_fract_z
_atom_site_B_iso_or_equiv
_atom_site_occupancy
_atom_site_attached_hydrogens
Pr1 Pr3+ 4 a 0.38529(3) 0.45474(6) 0.04619(2) 0.00806(9) 1 0
Pr2 Pr3+ 4 a 0.63535(3) -0.02978(5) -0.22745(2) 0.00761(9) 1 0
P1 P5+ 4 a 0.48025(19) 0.9838(2) 0.12410(16) 0.0055(6) 1 0
P2 P5+ 4 a 0.52057(18) 0.4798(3) -0.13302(15) 0.0070(5) 1 0
P3 P5+ 4 a 0.27100(18) -0.0282(3) -0.04918(14) 0.0057(5) 1 0
P4 P5+ 4 a 0.26877(19) 0.5082(2) 0.19445(16) 0.0067(6) 1 0
Na1 Na1+ 4 a 0.6153(3) 0.9995(5) 0.2988(2) 0.0137(12) 1 0
Na2 Na1+ 4 a 0.2024(3) -0.0050(4) 0.1200(3) 0.0194(13) 1 0
Na3 Na1+ 4 a 0.2790(3) 0.4955(4) -0.1399(3) 0.0184(11) 1 0
Na4 Na1+ 4 a 0.5281(3) -0.0272(4) -0.0403(2) 0.0160(10) 1 0
Na5 Na1+ 4 a 0.5499(3) 0.4983(4) 0.2016(3) 0.0161(12) 1 0
Na6 Na1+ 4 a 0.1350(4) 0.4977(5) 0.0201(2) 0.0202(14) 1 0
O1 O2- 4 a 0.3768(4) 0.4888(6) 0.1950(4) 0.0120(17) 1 0
O2 O2- 4 a 0.2352(5) 0.5037(5) 0.1176(4) 0.0114(18) 1 0
O3 O2- 4 a 0.2494(5) -0.0171(6) -0.1298(4) 0.0113(18) 1 0
O4 O2- 4 a 0.5255(3) 0.2035(7) 0.0860(2) 0.0106(12) 1 0
O5 O2- 4 a 0.3633(3) 0.1086(7) -0.0350(2) 0.0152(12) 1 0
O6 O2- 4 a 0.1935(3) 0.0858(7) -0.0046(2) 0.0159(12) 1 0
O7 O2- 4 a 0.2378(3) 0.7527(6) 0.2316(2) 0.0108(12) 1 0
O8 O2- 4 a 0.2818(3) 0.6977(6) -0.02704(19) 0.0134(11) 1 0
O9 O2- 4 a 0.5338(3) 0.2031(6) -0.15071(19) 0.0143(11) 1 0
O10 O2- 4 a 0.5103(3) 0.7456(7) 0.0873(3) 0.0132(13) 1 0
O11 O2- 4 a 0.2267(3) 0.2810(7) 0.2359(2) 0.0118(12) 1 0
O12 O2- 4 a 0.6120(3) 0.6185(7) -0.1489(2) 0.0167(13) 1 0
O13 O2- 4 a 0.5577(3) 0.4119(7) 0.3221(2) 0.0147(12) 1 0
O14 O2- 4 a 0.4998(5) 0.5130(6) -0.0522(4) 0.0128(18) 1 0
O15 O2- 4 a 0.5133(5) 0.9809(6) 0.2038(4) 0.0114(17) 1 0
O16 O2- 4 a 0.3718(4) 1.0148(7) 0.1245(4) 0.0131(17) 1 0
loop_
_atom_site_aniso_label
_atom_site_aniso_type_symbol
_atom_site_aniso_U_11
_atom_site_aniso_U_22
_atom_site_aniso_U_33
_atom_site_aniso_U_12
_atom_site_aniso_U_13
_atom_site_aniso_U_23
Pr1 Pr3+ 0.00590(15) 0.01094(12) 0.00735(19) 0.00068(13) 0.00039(15) 0.00025(16)
Pr2 Pr3+ 0.00571(16) 0.01036(12) 0.00677(19) 0.00074(11) -0.00006(15)
-0.00008(17)
P1 P5+ 0.0050(12) 0.0074(7) 0.0039(12) -0.0008(5) 0.0000(10) -0.0001(5)
P2 P5+ 0.0073(11) 0.0075(7) 0.0061(10) -0.0009(5) 0.0013(8) -0.0009(5)
P3 P5+ 0.0068(10) 0.0060(6) 0.0042(10) 0.0007(5) 0.0003(8) -0.0004(6)
P4 P5+ 0.0076(13) 0.0047(7) 0.0077(13) 0.0003(4) 0.0010(10) 0.0002(5)
Na1 Na1+ 0.009(2) 0.0191(13) 0.013(3) 0.0021(8) -0.0042(18) -0.0023(10)
Na2 Na1+ 0.023(3) 0.0200(16) 0.015(3) -0.0020(9) -0.003(2) 0.0045(9)
Na3 Na1+ 0.016(2) 0.0264(16) 0.0130(19) 0.0002(9) 0.0005(16) -0.0058(9)
Na4 Na1+ 0.018(2) 0.0154(12) 0.0144(19) -0.0023(10) 0.0014(16) 0.0028(10)
Na5 Na1+ 0.008(2) 0.0243(16) 0.016(2) 0.0001(8) -0.0005(18) 0.0046(8)
Na6 Na1+ 0.017(3) 0.0238(15) 0.019(3) 0.0016(8) -0.005(2) -0.0007(10)
O1 O2- 0.010(3) 0.013(2) 0.013(3) -0.0021(15) -0.002(2) 0.0013(16)
O2 O2- 0.010(3) 0.017(2) 0.007(3) 0.0004(12) 0.001(3) -0.0008(13)
O3 O2- 0.019(4) 0.014(2) 0.001(3) 0.0033(15) 0.003(3) 0.0011(13)
O4 O2- 0.009(2) 0.0085(17) 0.014(2) 0.0006(14) -0.0001(16) 0.0042(15)
O5 O2- 0.011(2) 0.018(2) 0.017(2) -0.0052(16) 0.0003(16) -0.0046(17)
O6 O2- 0.013(2) 0.0198(18) 0.014(2) 0.0082(17) 0.0013(18) 0.0003(18)
O7 O2- 0.010(2) 0.0059(16) 0.016(2) -0.0006(15) 0.0051(17) -0.0060(15)
O8 O2- 0.018(2) 0.0096(17) 0.0125(19) 0.0007(14) 0.0010(16) 0.0005(14)
O9 O2- 0.018(2) 0.0100(17) 0.015(2) 0.0031(14) 0.0035(16) -0.0029(14)
O10 O2- 0.017(2) 0.0097(19) 0.013(2) 0.0021(16) 0.0031(18) 0.0007(16)
O11 O2- 0.008(2) 0.0139(18) 0.013(2) 0.0002(15) 0.0018(17) 0.0038(16)
O12 O2- 0.013(2) 0.022(2) 0.015(2) -0.0065(17) 0.0041(16) 0.0021(17)
O13 O2- 0.013(2) 0.0205(18) 0.010(2) 0.0088(17) 0.0039(17) -0.0014(17)
O14 O2- 0.010(3) 0.018(2) 0.011(4) -0.0016(13) 0.004(3) -0.0008(14)
O15 O2- 0.013(4) 0.016(2) 0.006(3) 0.0009(14) -0.002(3) 0.0019(14)
O16 O2- 0.005(3) 0.017(2) 0.018(3) 0.0029(16) 0.002(2) 0.0048(17)
#End of TTdata_432286-ICSD