
#(C) 2019 by FIZ Karlsruhe - Leibniz Institute for Information Infrastructure.  All rights reserved.
data_432294-ICSD
_database_code_ICSD 432294
_audit_creation_date 2017-08-01
_chemical_name_systematic 'Sodium-2.3 potassium-0.7 decaoxo-hexaborate nitrate'
_chemical_formula_structural '(Na2.3 K0.7) (B6 O10) (N O3)'
_chemical_formula_sum 'B6 K0.7 N1 Na2.3 O13'
_exptl_crystal_density_diffrn 2.47
_cell_measurement_temperature 296.
_publ_section_title

;
Synthesis and characterization of the alkali borate-nitrates Na3-x Kx [B6 O10]
N O3 (x=0.5, 0.6, 0.7)
;
loop_
_citation_id
_citation_journal_full
_citation_year
_citation_journal_volume
_citation_page_first
_citation_page_last
_citation_journal_id_ASTM
primary 'Zeitschrift fuer Naturforschung, B: A Journal of Chemical Sciences'
2017 72 215 223 ZNBSEN
loop_
_publ_author_name
'Ortner, Teresa S.'
'Schildhammer, Daniel'
'Tribus, Martina'
'Joachim, Bastian'
'Huppertz, Hubert'
_cell_length_a 12.67122(44)
_cell_length_b 10.07963(35)
_cell_length_c 7.74383(25)
_cell_angle_alpha 90
_cell_angle_beta 90
_cell_angle_gamma 90
_cell_volume 989.04
_cell_formula_units_Z 4
_symmetry_space_group_name_H-M 'P n m a'
_symmetry_Int_Tables_number 62
_refine_ls_R_factor_all 0.0423
loop_
_symmetry_equiv_pos_site_id
_symmetry_equiv_pos_as_xyz
1 'x+1/2, y, -z+1/2'
2 'x, -y+1/2, z'
3 '-x+1/2, y+1/2, z+1/2'
4 '-x, -y, -z'
5 '-x+1/2, -y, z+1/2'
6 '-x, y+1/2, -z'
7 'x+1/2, -y+1/2, -z+1/2'
8 'x, y, z'
loop_
_atom_type_symbol
_atom_type_oxidation_number
B3+ 3
N5+ 5
Na1+ 1
K1+ 1
Na1+ 1
K1+ 1
O2- -2
loop_
_atom_site_label
_atom_site_type_symbol
_atom_site_symmetry_multiplicity
_atom_site_Wyckoff_symbol
_atom_site_fract_x
_atom_site_fract_y
_atom_site_fract_z
_atom_site_B_iso_or_equiv
_atom_site_occupancy
_atom_site_attached_hydrogens
B1 B3+ 8 d 0.16345(78) 0.12386(98) 0.2749(13) 1 1 0
B2 B3+ 4 c 0.3131(12) 0.25 0.4306(17) 1 1 0
B3 B3+ 4 c 0.00022(93) 0.25 0.2249(31) 1 1 0
B4 B3+ 8 d 0.25458(96) 0.0246(11) 0.5307(15) 1 1 0
N1 N5+ 4 c 0.05075(94) 0.25 0.7028(15) 1 1 0
Na1 Na1+ 4 b 0.5 0 0 1 1 0
Na2 Na1+ 4 a 0 0 0 1 0.855(22) 0
K1 K1+ 4 a 0 0 0 1 0.145(22) 0
Na3 Na1+ 4 c 0.29262(59) 0.25 0.87427(83) 1 0.410(22) 0
K2 K1+ 4 c 0.29262(59) 0.25 0.87427(83) 1 0.590(22) 0
O1 O2- 4 c 0.21147(81) 0.25 0.3438(14) 1 1 0
O2 O2- 8 d 0.17787(68) 0.01589(98) 0.40727(95) 1 1 0
O3 O2- 8 d 0.05206(56) 0.13289(74) 0.2398(16) 1 1 0
O4 O2- 8 d 0.22250(73) 0.09427(82) 0.1209(11) 1 1 0
O5 O2- 8 d 0.32468(69) 0.13122(75) 0.5418(11) 1 1 0
O6 O2- 4 c -0.02437(93) 0.25 0.6004(16) 1 1 0
O7 O2- 4 c 0.89400(68) 0.25 0.1969(14) 1 1 0
O8 O2- 8 d 0.08672(68) 0.14901(71) 0.7784(13) 1 1 0
#End of TTdata_432294-ICSD