
#(C) 2019 by FIZ Karlsruhe - Leibniz Institute for Information Infrastructure.  All rights reserved.
data_432210-ICSD
_database_code_ICSD 432210
_audit_creation_date 2018-08-01
_chemical_name_systematic 'Disodium catena-disulfidoferrate(II)'
_chemical_formula_structural 'Na2 (Fe S2)'
_chemical_formula_sum 'Fe1 Na2 S2'
_chemical_name_structure_type K2ZnO2
_exptl_crystal_density_diffrn 2.67
_cell_measurement_temperature 293.
_publ_section_title

;
Na7[Fe2S6], Na2[FeS2] and Na2[FeSe2]. New 'reduced' sodium chalcogenido
ferrates
;
loop_
_citation_id
_citation_journal_full
_citation_year
_citation_journal_volume
_citation_page_first
_citation_page_last
_citation_journal_id_ASTM
primary 'Journal of Solid State Chemistry' 2018 258 416 430 JSSCBI
loop_
_publ_author_name
'Stueble, Pirmin'
'Peschke, Simon'
'Johrendt, Dirk'
'Roehr, Caroline'
_cell_length_a 6.4354(8)
_cell_length_b 11.4020(18)
_cell_length_c 5.6290(6)
_cell_angle_alpha 90
_cell_angle_beta 90
_cell_angle_gamma 90
_cell_volume 413.03
_cell_formula_units_Z 4
_symmetry_space_group_name_H-M 'I b a m'
_symmetry_Int_Tables_number 72
_refine_ls_R_factor_all 0.0372
loop_
_symmetry_equiv_pos_site_id
_symmetry_equiv_pos_as_xyz
1 '-x, y, z+1/2'
2 'x, -y, z+1/2'
3 'x, y, -z'
4 '-x, -y, -z'
5 'x, -y, -z+1/2'
6 '-x, y, -z+1/2'
7 '-x, -y, z'
8 'x, y, z'
9 '-x+1/2, y+1/2, z'
10 'x+1/2, -y+1/2, z'
11 'x+1/2, y+1/2, -z+1/2'
12 '-x+1/2, -y+1/2, -z+1/2'
13 'x+1/2, -y+1/2, -z'
14 '-x+1/2, y+1/2, -z'
15 '-x+1/2, -y+1/2, z+1/2'
16 'x+1/2, y+1/2, z+1/2'
loop_
_atom_type_symbol
_atom_type_oxidation_number
Na1+ 1
Fe2+ 2
S2- -2
loop_
_atom_site_label
_atom_site_type_symbol
_atom_site_symmetry_multiplicity
_atom_site_Wyckoff_symbol
_atom_site_fract_x
_atom_site_fract_y
_atom_site_fract_z
_atom_site_B_iso_or_equiv
_atom_site_occupancy
_atom_site_attached_hydrogens
Na1 Na1+ 8 j 0.1542(5) 0.3540(3) 0. 0.0434(8) 1 0
Fe1 Fe2+ 4 a 0. 0. 0.25 0.0319(5) 1 0
S1 S2- 8 j 0.2143(3) 0.11154(14) 0. 0.0353(5) 1 0
loop_
_atom_site_aniso_label
_atom_site_aniso_type_symbol
_atom_site_aniso_U_11
_atom_site_aniso_U_22
_atom_site_aniso_U_33
_atom_site_aniso_U_12
_atom_site_aniso_U_13
_atom_site_aniso_U_23
Na1 Na1+ 0.0427(16) 0.0489(16) 0.0385(13) -0.0002(13) 0. 0.
Fe1 Fe2+ 0.0299(7) 0.0379(7) 0.0277(7) 0. 0. 0.
S1 S2- 0.0357(10) 0.0410(9) 0.0293(7) -0.0059(7) 0. 0.
#End of TTdata_432210-ICSD