
#(C) 2019 by FIZ Karlsruhe - Leibniz Institute for Information Infrastructure.  All rights reserved.
data_432307-ICSD
_database_code_ICSD 432307
_audit_creation_date 2019-08-01
_chemical_name_systematic
'Tetralithium hexasodium tritriacontaoxo-tetrahydroxo-octadecaborate'
_chemical_formula_structural 'Li4 Na6 B18 O30 (O H)4'
_chemical_formula_sum 'H4 B18 Li4 Na6 O34'
_exptl_crystal_density_diffrn 2.38
_cell_measurement_temperature 293.
_publ_section_title

;
Borates a novel twofold interpenetrating 3D diamondoid borate framework
constructed from B4 and B5 clusters
;
loop_
_citation_id
_citation_journal_full
_citation_year
_citation_journal_volume
_citation_page_first
_citation_page_last
_citation_journal_id_ASTM
primary ChemistrySelect 2017 2 5311 5315 CHEMUD
loop_
_publ_author_name
'Wang, Jia-Jia'
'Wei, Qi'
'Yang, Guo-Yu'
_cell_length_a 11.755(3)
_cell_length_b 12.727(3)
_cell_length_c 9.933(5)
_cell_angle_alpha 90.
_cell_angle_beta 121.62(2)
_cell_angle_gamma 90.
_cell_volume 1265.42
_cell_formula_units_Z 2
_symmetry_space_group_name_H-M 'C 1 2/c 1'
_symmetry_Int_Tables_number 15
_refine_ls_R_factor_all 0.036
loop_
_symmetry_equiv_pos_site_id
_symmetry_equiv_pos_as_xyz
1 'x, -y, z+1/2'
2 '-x, -y, -z'
3 '-x, y, -z+1/2'
4 'x, y, z'
5 'x+1/2, -y+1/2, z+1/2'
6 '-x+1/2, -y+1/2, -z'
7 '-x+1/2, y+1/2, -z+1/2'
8 'x+1/2, y+1/2, z'
loop_
_atom_type_symbol
_atom_type_oxidation_number
Na1+ 1
Li1+ 1
B3+ 3
O2- -2
H1+ 1
O2- -2
loop_
_atom_site_label
_atom_site_type_symbol
_atom_site_symmetry_multiplicity
_atom_site_Wyckoff_symbol
_atom_site_fract_x
_atom_site_fract_y
_atom_site_fract_z
_atom_site_B_iso_or_equiv
_atom_site_occupancy
_atom_site_attached_hydrogens
Na1 Na1+ 8 f 0.11235(7) 0.35703(6) 0.19635(9) 0.0233(2) 1 0
Na2 Na1+ 8 f 0.7050(2) 0.26971(17) 0.4750(3) 0.0511(6) 0.5 0
Li1 Li1+ 8 f 0.6589(3) 0.4438(3) 0.6332(4) 0.0240(7) 1 0
B1 B3+ 8 f 0.40543(17) 0.05863(14) 0.1201(2) 0.0124(4) 1 0
B2 B3+ 8 f 0.39762(17) 0.17096(14) 0.3147(2) 0.0130(4) 1 0
B3 B3+ 8 f 0.40978(18) 0.33260(14) 0.4626(2) 0.0145(4) 1 0
B4 B3+ 8 f 0.29084(18) 0.44573(14) 0.5558(2) 0.0134(4) 1 0
B5 B3+ 4 e 0.5 0.35156(19) 0.75 0.0126(5) 1 0
O1 O2- 8 f 0.51365(12) 0.38527(10) 0.44194(16) 0.0206(3) 1 0
H1 H1+ 8 f 0.4861 0.4204 0.3575 0.025 1 0
O2 O2- 8 f 0.33767(11) 0.25539(9) 0.33493(14) 0.0158(3) 1 0
O3 O2- 4 e 0.5 -0.00731(12) 0.25 0.0129(3) 1 0
O4 O2- 8 f 0.31516(11) 0.00617(9) -0.02709(14) 0.0153(3) 1 0
O5 O2- 8 f 0.47043(11) 0.28782(9) 0.61676(14) 0.0159(3) 1 0
O6 O2- 8 f 0.30644(11) 0.41379(9) 0.43442(14) 0.0147(3) 1 0
O7 O2- 8 f 0.32352(11) 0.11810(9) 0.17236(14) 0.0135(3) 1 0
O8 O2- 8 f 0.52660(11) 0.14184(9) 0.41913(14) 0.0145(3) 1 0
O9 O2- 8 f 0.38410(11) 0.42402(9) 0.70957(14) 0.0147(3) 1 0
loop_
_atom_site_aniso_label
_atom_site_aniso_type_symbol
_atom_site_aniso_U_11
_atom_site_aniso_U_22
_atom_site_aniso_U_33
_atom_site_aniso_U_12
_atom_site_aniso_U_13
_atom_site_aniso_U_23
Na1 Na1+ 0.0222(4) 0.0232(4) 0.0205(4) -0.0025(3) 0.0084(3) -0.0064(3)
Na2 Na1+ 0.0475(12) 0.0431(12) 0.0591(15) -0.0189(10) 0.0253(12) -0.0355(11)
Li1 Li1+ 0.0218(15) 0.0305(17) 0.0219(17) 0.0016(13) 0.0128(14) 0.0036(13)
B1 B3+ 0.0123(8) 0.0112(8) 0.0130(9) -0.0020(6) 0.0060(8) -0.0014(7)
B2 B3+ 0.0154(8) 0.0122(8) 0.0125(9) -0.0001(6) 0.0081(7) 0.0003(7)
B3 B3+ 0.0148(8) 0.0123(8) 0.0145(9) 0.0006(6) 0.0064(7) -0.0035(7)
B4 B3+ 0.0149(8) 0.0118(8) 0.0126(9) -0.0003(6) 0.0065(7) 0.0014(7)
B5 B3+ 0.0141(11) 0.0107(11) 0.0114(13) 0. 0.0056(10) 0.
O1 O2- 0.0205(6) 0.0200(6) 0.0213(7) -0.0033(5) 0.0110(6) -0.0011(5)
O2 O2- 0.0145(5) 0.0141(6) 0.0153(6) 0.0020(4) 0.0054(5) -0.0033(5)
O3 O2- 0.0148(8) 0.0104(7) 0.0139(9) 0. 0.0077(7) 0.
O4 O2- 0.0161(6) 0.0173(6) 0.0129(6) -0.0047(4) 0.0080(5) -0.0038(5)
O5 O2- 0.0176(6) 0.0119(6) 0.0133(6) 0.0034(4) 0.0048(5) -0.0015(4)
O6 O2- 0.0171(6) 0.0133(6) 0.0119(6) 0.0036(4) 0.0065(5) -0.0002(4)
O7 O2- 0.0136(5) 0.0141(5) 0.0123(6) 0.0006(4) 0.0065(5) -0.0023(4)
O8 O2- 0.0153(6) 0.0143(6) 0.0123(6) 0.0037(4) 0.0061(5) -0.0023(4)
O9 O2- 0.0145(6) 0.0168(6) 0.0117(6) 0.0043(4) 0.0062(5) 0.0017(4)
#End of TTdata_432307-ICSD