
#(C) 2019 by FIZ Karlsruhe - Leibniz Institute for Information Infrastructure.  All rights reserved.
data_432674-ICSD
_database_code_ICSD 432674
_audit_creation_date 2018-02-01
_chemical_name_systematic 'Cadmium sodium molybdate (1.14/3.72/3)'
_chemical_formula_structural 'Cd1.14 Na3.72 (Mo O4)3'
_chemical_formula_sum 'Cd1.14 Mo3 Na3.72 O12'
_exptl_crystal_density_diffrn 3.82
_cell_measurement_temperature 293.
_publ_section_title

;
Nonstoichiometry in the systems Na2MoO4-MMoO4 (M = Co, Cd), crystal structures
of Na3.36Co1.32(MoO4)3, Na3.13Mn1.43(MoO4)3 and Na3.72Cd1.14(MoO4)3, crystal
chemistry, compositions and ionic conductivity of alluaudite-type double
molybdates and tungstates
;
loop_
_citation_id
_citation_journal_full
_citation_year
_citation_journal_volume
_citation_page_first
_citation_page_last
_citation_journal_id_ASTM
primary 'Journal of Solid State Chemistry' 2017 253 121 128 JSSCBI
loop_
_publ_author_name
'Solodovnikov, Sergey F.'
'Solodovnikova, Zoya A.'
'Zolotova, Evgeniya S.'
'Yudin, Vasiliy N.'
'Gulyaeva, Oksana A.'
'Tushinova, Yunna L.'
'Kuchumov, Boris M.'
_cell_length_a 12.804(3)
_cell_length_b 13.913(3)
_cell_length_c 7.3258(15)
_cell_angle_alpha 90.
_cell_angle_beta 112.63(3)
_cell_angle_gamma 90.
_cell_volume 1204.55
_cell_formula_units_Z 4
_symmetry_space_group_name_H-M 'C 1 2/c 1'
_symmetry_Int_Tables_number 15
_refine_ls_R_factor_all 0.0158
loop_
_symmetry_equiv_pos_site_id
_symmetry_equiv_pos_as_xyz
1 'x, -y, z+1/2'
2 '-x, -y, -z'
3 '-x, y, -z+1/2'
4 'x, y, z'
5 'x+1/2, -y+1/2, z+1/2'
6 '-x+1/2, -y+1/2, -z'
7 '-x+1/2, y+1/2, -z+1/2'
8 'x+1/2, y+1/2, z'
loop_
_atom_type_symbol
_atom_type_oxidation_number
Mo6+ 6
Na1+ 1
Cd2+ 2
Na1+ 1
O2- -2
loop_
_atom_site_label
_atom_site_type_symbol
_atom_site_symmetry_multiplicity
_atom_site_Wyckoff_symbol
_atom_site_fract_x
_atom_site_fract_y
_atom_site_fract_z
_atom_site_B_iso_or_equiv
_atom_site_occupancy
_atom_site_attached_hydrogens
Mo1 Mo6+ 4 e 0. 0.79406(2) 0.25 0.01830(9) 1 0
Mo2 Mo6+ 8 f 0.224477(18) 0.611298(15) 0.12190(3) 0.01815(8) 1 0
Na1 Na1+ 8 f 0.29140(2) 0.84390(2) 0.37767(4) 0.01778(10) 0.4310(11) 0
Cd1 Cd2+ 8 f 0.29140(2) 0.84390(2) 0.37767(4) 0.01778(10) 0.5690(11) 0
Na2 Na1+ 4 a 0. 0. 0. 0.0679(9) 0.990(6) 0
Na3 Na1+ 4 e 0. 0.22705(10) 0.25 0.0211(3) 1 0
Na4 Na1+ 4 e 0. 0.4944(3) 0.25 0.0751(12) 0.872(6) 0
O1 O2- 8 f 0.16285(17) 0.32961(14) 0.3926(3) 0.0277(4) 1 0
O2 O2- 8 f 0.13185(17) 0.08831(15) 0.3198(3) 0.0324(5) 1 0
O3 O2- 8 f 0.39347(17) 0.37529(15) 0.2460(3) 0.0361(5) 1 0
O4 O2- 8 f 0.28844(17) 0.18230(14) 0.1878(3) 0.0281(4) 1 0
O5 O2- 8 f 0.03788(16) 0.72438(15) 0.4672(3) 0.0294(4) 1 0
O6 O2- 8 f 0.14824(19) 0.50233(14) 0.1025(3) 0.0333(5) 1 0
loop_
_atom_site_aniso_label
_atom_site_aniso_type_symbol
_atom_site_aniso_U_11
_atom_site_aniso_U_22
_atom_site_aniso_U_33
_atom_site_aniso_U_12
_atom_site_aniso_U_13
_atom_site_aniso_U_23
Mo1 Mo6+ 0.01676(15) 0.01842(15) 0.01710(15) 0. 0.00360(12) 0.
Mo2 Mo6+ 0.02015(12) 0.01774(12) 0.01570(12) -0.00100(7) 0.00593(9) 0.00085(7)
Na1 Na1+ 0.01811(15) 0.02005(16) 0.01561(15) 0.00014(10) 0.00695(11) 0.00154(10)
Cd1 Cd2+ 0.01811(15) 0.02005(16) 0.01561(15) 0.00014(10) 0.00695(11) 0.00154(10)
Na2 Na1+ 0.091(2) 0.0291(10) 0.0481(14) -0.0081(11) -0.0124(12) 0.0083(9)
Na3 Na1+ 0.0201(7) 0.0244(7) 0.0209(7) 0. 0.0102(6) 0.
Na4 Na1+ 0.0259(12) 0.167(3) 0.0302(14) 0. 0.0080(10) 0.
O1 O2- 0.0336(11) 0.0339(10) 0.0172(9) -0.0089(9) 0.0115(8) -0.0039(8)
O2 O2- 0.0224(10) 0.0292(10) 0.0429(12) -0.0014(8) 0.0096(9) -0.0053(9)
O3 O2- 0.0207(10) 0.0260(10) 0.0534(14) 0.0021(8) 0.0051(9) -0.0072(9)
O4 O2- 0.0354(11) 0.0320(10) 0.0183(9) 0.0049(9) 0.0119(8) 0.0023(8)
O5 O2- 0.0211(9) 0.0477(12) 0.0188(9) 0.0073(8) 0.0071(8) 0.0073(8)
O6 O2- 0.0317(11) 0.0224(9) 0.0440(13) -0.0041(8) 0.0124(10) 0.0019(9)
#End of TTdata_432674-ICSD