
#(C) 2019 by FIZ Karlsruhe - Leibniz Institute for Information Infrastructure.  All rights reserved.
data_432971-ICSD
_database_code_ICSD 432971
_audit_creation_date 2018-02-01
_chemical_name_systematic
'Heptasodium tetravanadium aluminium tetrakis(diphosphate) orthophosphate'
_chemical_formula_structural 'Na7 V4 (P2 O7)4 (P O4)'
_chemical_formula_sum 'Na7 O32 P9 V4'
_chemical_name_structure_type Na7(InP2O7)4PO4
_exptl_crystal_density_diffrn 3.
_cell_measurement_temperature 293.
_publ_section_title

;
Structural and electrochemical studies of novel Na7V3Al(P2O7)4(PO4) and
Na7V2Al2(P2O7)4(PO4) high-voltage cathode materials for Na-ion batteries
;
loop_
_citation_id
_citation_journal_full
_citation_year
_citation_journal_volume
_citation_page_first
_citation_page_last
_citation_journal_id_ASTM
primary
'Journal of Materials Chemistry A: Materials for Energy and Sustainability' 2017 5 14365 14376 JMCAET
loop_
_publ_author_name
'Kovrugin, Vadim M.'
'Chotard, Jean-Noel'
'Fauth, Francois'
'Jamali, Arash'
'David, Renald'
'Masquelier, Christian'
_cell_length_a 14.212
_cell_length_b 14.212
_cell_length_c 6.337(2)
_cell_angle_alpha 90
_cell_angle_beta 90
_cell_angle_gamma 90
_cell_volume 1279.95
_cell_formula_units_Z 2
_symmetry_space_group_name_H-M 'P -4 21 c'
_symmetry_Int_Tables_number 114
_refine_ls_R_factor_all 0.0326
loop_
_symmetry_equiv_pos_site_id
_symmetry_equiv_pos_as_xyz
1 'y+1/2, x+1/2, z+1/2'
2 'y, -x, -z'
3 '-y+1/2, -x+1/2, z+1/2'
4 '-y, x, -z'
5 'x+1/2, -y+1/2, -z+1/2'
6 '-x, -y, z'
7 '-x+1/2, y+1/2, -z+1/2'
8 'x, y, z'
loop_
_atom_type_symbol
_atom_type_oxidation_number
V3+ 3
P5+ 5
Na1+ 1
O2- -2
loop_
_atom_site_label
_atom_site_type_symbol
_atom_site_symmetry_multiplicity
_atom_site_Wyckoff_symbol
_atom_site_fract_x
_atom_site_fract_y
_atom_site_fract_z
_atom_site_B_iso_or_equiv
_atom_site_occupancy
_atom_site_attached_hydrogens
V1 V3+ 8 e 0.81624(4) 0.12034(4) 0.12976(11) 0.00596(14) 1 0
P1 P5+ 2 a 0. 0. 0. 0.0057(4) 1 0
P2 P5+ 8 e 0.61985(7) 0.25690(7) 0.14137(15) 0.00642(19) 1 0
P3 P5+ 8 e 0.95619(7) 0.30282(7) 0.11002(17) 0.00721(19) 1 0
Na1 Na1+ 2 b 0. 0. 0.5 0.0619(16) 1 0
Na2 Na1+ 4 d 0. 0.5 0.8278(4) 0.0287(7) 1 0
Na3 Na1+ 8 e 0.91816(13) 0.25935(13) 0.6041(3) 0.0200(4) 1 0
O1 O2- 8 e 0.13703(19) 0.17101(19) 0.1884(4) 0.0104(6) 1 0
O2 O2- 8 e 0.6995(2) 0.1912(2) 0.1025(5) 0.0177(6) 1 0
O3 O2- 8 e 0.93538(18) 0.05554(19) 0.1477(4) 0.0104(6) 1 0
O4 O2- 8 e 0.5359(2) 0.1880(2) 0.2107(5) 0.0151(6) 1 0
O5 O2- 8 e 0.5864(2) 0.3048(2) 0.9432(4) 0.0149(7) 1 0
O6 O2- 8 e 0.0020(2) 0.2570(2) 0.9201(4) 0.0115(6) 1 0
O7 O2- 8 e 0.9269(2) 0.40252(19) 0.0722(5) 0.0138(6) 1 0
O8 O2- 8 e 0.8796(2) 0.2434(2) 0.2074(5) 0.0173(7) 1 0
loop_
_atom_site_aniso_label
_atom_site_aniso_type_symbol
_atom_site_aniso_U_11
_atom_site_aniso_U_22
_atom_site_aniso_U_33
_atom_site_aniso_U_12
_atom_site_aniso_U_13
_atom_site_aniso_U_23
V1 V3+ 0.0058(3) 0.0062(3) 0.0059(3) 0.0006(2) 0.0004(3) -0.0005(3)
P1 P5+ 0.0056(5) 0.0056(5) 0.0061(9) 0. 0. 0.
P2 P5+ 0.0065(4) 0.0076(4) 0.0052(4) 0.0003(4) 0.0003(4) 0.0003(4)
P3 P5+ 0.0071(4) 0.0070(4) 0.0075(5) 0.0008(3) -0.0007(4) -0.0004(4)
Na1 Na1+ 0.085(3) 0.085(3) 0.016(2) 0. 0. 0.
Na2 Na1+ 0.0300(15) 0.0440(17) 0.0121(13) -0.0242(12) 0. 0.
Na3 Na1+ 0.0212(9) 0.0224(9) 0.0163(9) -0.0044(7) -0.0028(8) 0.0033(8)
O1 O2- 0.0143(15) 0.0101(14) 0.0067(13) 0.0049(11) -0.0015(11) 0.0006(11)
O2 O2- 0.0136(14) 0.0231(16) 0.0164(16) 0.0098(11) -0.0013(13) -0.0033(14)
O3 O2- 0.0085(12) 0.0138(13) 0.0091(13) 0.0052(10) -0.0017(12) -0.0026(12)
O4 O2- 0.0152(15) 0.0185(15) 0.0114(14) -0.0106(13) 0.0071(12) -0.0061(13)
O5 O2- 0.0209(16) 0.0175(15) 0.0064(14) 0.0066(13) -0.0004(12) 0.0020(12)
O6 O2- 0.0112(13) 0.0144(14) 0.0089(14) 0.0030(11) -0.0018(12) -0.0031(12)
O7 O2- 0.0186(15) 0.0097(14) 0.0133(15) 0.0031(12) -0.0021(12) 0.0006(11)
O8 O2- 0.0172(15) 0.0152(15) 0.0194(15) -0.0089(13) 0.0076(13) -0.0074(13)
#End of TTdata_432971-ICSD