
#(C) 2019 by FIZ Karlsruhe - Leibniz Institute for Information Infrastructure.  All rights reserved.
data_433034-ICSD
_database_code_ICSD 433034
_audit_creation_date 2018-02-01
_chemical_name_systematic 'Sodium tetrahydrogen pentafluoride'
_chemical_formula_structural 'Na H4 F5'
_chemical_formula_sum 'H4 F5 Na1'
_exptl_crystal_density_diffrn 1.92
_cell_measurement_temperature 100.
_publ_section_title

;
Syntheses and crystal structures of sodium hydrogen fluorides NaF.nHF (n = 2,
3, 4)
;
loop_
_citation_id
_citation_journal_full
_citation_year
_citation_journal_volume
_citation_page_first
_citation_page_last
_citation_journal_id_ASTM
primary 'Zeitschrift fuer Anorganische und Allgemeine Chemie' 2017 643 1436 1443
ZAACAB
loop_
_publ_author_name
'Ivlev, Sergei I.'
'Soltner, Theresa'
'Karttunen, Antti J.'
'Muehlbauer, Martin J.'
'Kornath, Andreas J.'
'Kraus, Florian'
_cell_length_a 6.0275(4)
_cell_length_b 6.0275(4)
_cell_length_c 11.6208(13)
_cell_angle_alpha 90
_cell_angle_beta 90
_cell_angle_gamma 90
_cell_volume 422.19
_cell_formula_units_Z 4
_symmetry_space_group_name_H-M 'I 41/a Z'
_symmetry_Int_Tables_number 88
_refine_ls_R_factor_all 0.0209
loop_
_symmetry_equiv_pos_site_id
_symmetry_equiv_pos_as_xyz
1 '-y+3/4, x+3/4, -z+3/4'
2 'y+1/4, -x+3/4, -z+3/4'
3 'x, y+1/2, -z'
4 '-x, -y, -z'
5 'y+1/4, -x+1/4, z+1/4'
6 '-y+3/4, x+1/4, z+1/4'
7 '-x, -y+1/2, z'
8 'x, y, z'
9 '-y+1/4, x+1/4, -z+1/4'
10 'y+3/4, -x+1/4, -z+1/4'
11 'x+1/2, y, -z+1/2'
12 '-x+1/2, -y+1/2, -z+1/2'
13 'y+3/4, -x+3/4, z+3/4'
14 '-y+1/4, x+3/4, z+3/4'
15 '-x+1/2, -y, z+1/2'
16 'x+1/2, y+1/2, z+1/2'
loop_
_atom_type_symbol
_atom_type_oxidation_number
Na1+ 1
F1- -1
H1+ 1
loop_
_atom_site_label
_atom_site_type_symbol
_atom_site_symmetry_multiplicity
_atom_site_Wyckoff_symbol
_atom_site_fract_x
_atom_site_fract_y
_atom_site_fract_z
_atom_site_B_iso_or_equiv
_atom_site_occupancy
_atom_site_attached_hydrogens
Na1 Na1+ 4 a 0.5 0.25 0.375 0.01319(18) 1 0
F1 F1- 4 b 0. 0.25 0.625 0.0138(2) 1 0
F2 F1- 16 f 0.29274(7) 0.05275(7) 0.52277(4) 0.01843(19) 1 0
H1 H1+ 16 f 0.203(2) 0.1137(19) 0.5525(11) 0.022 1 0
loop_
_atom_site_aniso_label
_atom_site_aniso_type_symbol
_atom_site_aniso_U_11
_atom_site_aniso_U_22
_atom_site_aniso_U_33
_atom_site_aniso_U_12
_atom_site_aniso_U_13
_atom_site_aniso_U_23
Na1 Na1+ 0.0141(2) 0.0141(2) 0.0114(2) 0. 0. 0.
F1 F1- 0.0128(3) 0.0128(3) 0.0160(3) 0. 0. 0.
F2 F1- 0.0194(3) 0.0182(3) 0.0177(2) 0.00518(14) 0.00603(15) -0.00068(15)
#End of TTdata_433034-ICSD