
#(C) 2019 by FIZ Karlsruhe - Leibniz Institute for Information Infrastructure.  All rights reserved.
data_433032-ICSD
_database_code_ICSD 433032
_audit_creation_date 2018-02-01
_chemical_name_systematic 'Sodium dihydrogen trifluoride'
_chemical_formula_structural 'Na H2 F3'
_chemical_formula_sum 'H2 F3 Na1'
_exptl_crystal_density_diffrn 2.01
_cell_measurement_temperature 293.
_publ_section_title

;
Syntheses and crystal structures of sodium hydrogen fluorides NaF.nHF (n = 2,
3, 4)
;
loop_
_citation_id
_citation_journal_full
_citation_year
_citation_journal_volume
_citation_page_first
_citation_page_last
_citation_journal_id_ASTM
primary 'Zeitschrift fuer Anorganische und Allgemeine Chemie' 2017 643 1436 1443
ZAACAB
loop_
_publ_author_name
'Ivlev, Sergei I.'
'Soltner, Theresa'
'Karttunen, Antti J.'
'Muehlbauer, Martin J.'
'Kornath, Andreas J.'
'Kraus, Florian'
_cell_length_a 7.9741(4)
_cell_length_b 3.4913(2)
_cell_length_c 9.7579(5)
_cell_angle_alpha 90
_cell_angle_beta 90
_cell_angle_gamma 90
_cell_volume 271.65
_cell_formula_units_Z 4
_symmetry_space_group_name_H-M 'P n m a'
_symmetry_Int_Tables_number 62
_refine_ls_R_factor_all 0.0492
loop_
_symmetry_equiv_pos_site_id
_symmetry_equiv_pos_as_xyz
1 'x+1/2, y, -z+1/2'
2 'x, -y+1/2, z'
3 '-x+1/2, y+1/2, z+1/2'
4 '-x, -y, -z'
5 '-x+1/2, -y, z+1/2'
6 '-x, y+1/2, -z'
7 'x+1/2, -y+1/2, -z+1/2'
8 'x, y, z'
loop_
_atom_type_symbol
_atom_type_oxidation_number
Na1+ 1
F1- -1
H1+ 1
loop_
_atom_site_label
_atom_site_type_symbol
_atom_site_symmetry_multiplicity
_atom_site_Wyckoff_symbol
_atom_site_fract_x
_atom_site_fract_y
_atom_site_fract_z
_atom_site_B_iso_or_equiv
_atom_site_occupancy
_atom_site_attached_hydrogens
Na1 Na1+ 4 c 0.6187(16) 0.75 0.7278(11) 0.035(3) 1 0
F1 F1- 4 c 0.7273(8) 0.25 0.5974(7) 0.035(3) 1 0
F2 F1- 4 c 0.5170(10) 0.25 0.8604(8) 0.037(3) 1 0
F3 F1- 4 c 0.3547(10) 0.75 0.6312(10) 0.043(3) 1 0
H1 H1+ 4 c 0.3206(15) 0.75 0.5327(14) 0.049(5) 1 0
H2 H1+ 4 c 0.3951(16) 0.25 0.8845(13) 0.041(4) 1 0
loop_
_atom_site_aniso_label
_atom_site_aniso_type_symbol
_atom_site_aniso_U_11
_atom_site_aniso_U_22
_atom_site_aniso_U_33
_atom_site_aniso_U_12
_atom_site_aniso_U_13
_atom_site_aniso_U_23
Na1 Na1+ 0.035(6) 0.033(5) 0.036(6) 0 0.014(5) 0
F1 F1- 0.025(4) 0.047(5) 0.032(4) 0 -0.003(3) 0
F2 F1- 0.030(5) 0.042(5) 0.040(5) 0 0.007(4) 0
F3 F1- 0.028(4) 0.071(5) 0.030(5) 0 -0.006(3) 0
H1 H1+ 0.054(9) 0.050(8) 0.043(10) 0 0.006(6) 0
H2 H1+ 0.042(9) 0.043(6) 0.037441 0 0.007(6) 0
#End of TTdata_433032-ICSD