
#(C) 2019 by FIZ Karlsruhe - Leibniz Institute for Information Infrastructure.  All rights reserved.
data_433031-ICSD
_database_code_ICSD 433031
_audit_creation_date 2018-02-01
_chemical_name_systematic 'Sodium dihydrogen trifluoride'
_chemical_formula_structural 'Na H2 F3'
_chemical_formula_sum 'H2 F3 Na1'
_exptl_crystal_density_diffrn 2.05
_cell_measurement_temperature 100.
_publ_section_title

;
Syntheses and crystal structures of sodium hydrogen fluorides NaF.nHF (n = 2,
3, 4)
;
loop_
_citation_id
_citation_journal_full
_citation_year
_citation_journal_volume
_citation_page_first
_citation_page_last
_citation_journal_id_ASTM
primary 'Zeitschrift fuer Anorganische und Allgemeine Chemie' 2017 643 1436 1443
ZAACAB
loop_
_publ_author_name
'Ivlev, Sergei I.'
'Soltner, Theresa'
'Karttunen, Antti J.'
'Muehlbauer, Martin J.'
'Kornath, Andreas J.'
'Kraus, Florian'
_cell_length_a 7.9276(9)
_cell_length_b 3.4514(3)
_cell_length_c 9.6937(10)
_cell_angle_alpha 90
_cell_angle_beta 90
_cell_angle_gamma 90
_cell_volume 265.23
_cell_formula_units_Z 4
_symmetry_space_group_name_H-M 'P n m a'
_symmetry_Int_Tables_number 62
_refine_ls_R_factor_all 0.0269
loop_
_symmetry_equiv_pos_site_id
_symmetry_equiv_pos_as_xyz
1 'x+1/2, y, -z+1/2'
2 'x, -y+1/2, z'
3 '-x+1/2, y+1/2, z+1/2'
4 '-x, -y, -z'
5 '-x+1/2, -y, z+1/2'
6 '-x, y+1/2, -z'
7 'x+1/2, -y+1/2, -z+1/2'
8 'x, y, z'
loop_
_atom_type_symbol
_atom_type_oxidation_number
Na1+ 1
F1- -1
H1+ 1
loop_
_atom_site_label
_atom_site_type_symbol
_atom_site_symmetry_multiplicity
_atom_site_Wyckoff_symbol
_atom_site_fract_x
_atom_site_fract_y
_atom_site_fract_z
_atom_site_B_iso_or_equiv
_atom_site_occupancy
_atom_site_attached_hydrogens
Na1 Na1+ 4 c 0.62050(7) 0.75 0.72801(6) 0.01422(16) 1 0
F1 F1- 4 c 0.72665(11) 0.25 0.59787(9) 0.0152(2) 1 0
F2 F1- 4 c 1.02077(12) 0.25 0.63666(9) 0.0166(2) 1 0
F3 F1- 4 c 0.64322(12) 0.25 0.36644(10) 0.0198(2) 1 0
H1 H1+ 4 c 0.678(3) 0.25 0.452(3) 0.024 1 0
H2 H1+ 4 c 0.915(3) 0.25 0.621(3) 0.024 1 0
loop_
_atom_site_aniso_label
_atom_site_aniso_type_symbol
_atom_site_aniso_U_11
_atom_site_aniso_U_22
_atom_site_aniso_U_33
_atom_site_aniso_U_12
_atom_site_aniso_U_13
_atom_site_aniso_U_23
Na1 Na1+ 0.0126(3) 0.0144(3) 0.0156(3) 0. 0.00044(19) 0.
F1 F1- 0.0139(4) 0.0185(5) 0.0134(4) 0. 0.0002(3) 0.
F2 F1- 0.0130(4) 0.0188(5) 0.0181(4) 0. -0.0028(3) 0.
F3 F1- 0.0149(4) 0.0314(5) 0.0131(4) 0. -0.0017(3) 0.
#End of TTdata_433031-ICSD