
#(C) 2019 by FIZ Karlsruhe - Leibniz Institute for Information Infrastructure.  All rights reserved.
data_433181-ICSD
_database_code_ICSD 433181
_audit_creation_date 2018-02-01
_chemical_name_systematic 'Sodium alumosilicate Eu-doped'
_chemical_formula_structural 'Na Al Si O4'
_chemical_formula_sum 'Al1 Na1 O4 Si1'
_exptl_crystal_density_diffrn 2.51
_cell_measurement_temperature 300.
_publ_section_title

;
Temperature and Eu2+-doping induced phase selection in NaAlSiO4 polymorphs and
the controlled yellow/blue emission
;
loop_
_citation_id
_citation_journal_full
_citation_year
_citation_journal_volume
_citation_page_first
_citation_page_last
_citation_journal_id_ASTM
primary 'Chemistry of Materials' 2017 29 6552 6559 CMATEX
loop_
_publ_author_name
'Zhao, Ming'
'Xia, Zhiguo'
'Molokeev, Maxim S.'
'Ning, Lixin'
'Liu, QuanLin'
_cell_length_a 5.108967(85)
_cell_length_b 5.108967(85)
_cell_length_c 12.48752(29)
_cell_angle_alpha 90
_cell_angle_beta 90
_cell_angle_gamma 120
_cell_volume 282.27
_cell_formula_units_Z 3
_symmetry_space_group_name_H-M 'P 32'
_symmetry_Int_Tables_number 145
_refine_ls_R_factor_all 0.0692
loop_
_symmetry_equiv_pos_site_id
_symmetry_equiv_pos_as_xyz
1 '-x+y, -x, z+1/3'
2 '-y, x-y, z+2/3'
3 'x, y, z'
loop_
_atom_type_symbol
_atom_type_oxidation_number
Na1+ 1
Al3+ 3
Si4+ 4
O2- -2
loop_
_atom_site_label
_atom_site_type_symbol
_atom_site_symmetry_multiplicity
_atom_site_Wyckoff_symbol
_atom_site_fract_x
_atom_site_fract_y
_atom_site_fract_z
_atom_site_B_iso_or_equiv
_atom_site_occupancy
_atom_site_attached_hydrogens
Na1 Na1+ 3 a 0.6801(21) 0.5716(14) 0.08081(77) 1.28(30) 1 0
Al1 Al3+ 3 a 0.2590(14) 1.0088(16) 0.25 1.66(30) 1 0
Si1 Si4+ 3 a 0.3140(23) 0.9204(17) -0.00700(68) 0.85(21) 1 0
O1 O2- 3 a 0.0893(39) 0.5179(39) -0.0062(16) 2.55(28) 1 0
O2 O2- 3 a 0.2852(40) 1.1411(37) -0.0818(15) 2.55(28) 1 0
O3 O2- 3 a 0.6362(49) 0.9133(37) -0.0198(12) 2.55(28) 1 0
O4 O2- 3 a 0.3443(24) 1.0404(34) 0.1180(16) 2.55(28) 1 0
#End of TTdata_433181-ICSD