
#(C) 2019 by FIZ Karlsruhe - Leibniz Institute for Information Infrastructure.  All rights reserved.
data_433158-ICSD
_database_code_ICSD 433158
_audit_creation_date 2018-02-01
_chemical_name_systematic
'Disodium tridysprosium trichloride tetrakis(tellurate(IV))'
_chemical_formula_structural 'Na2 Dy3 Cl3 (Te O3)4'
_chemical_formula_sum 'Cl3 Dy3 Na2 O12 Te4'
_chemical_name_structure_type Na2Y3Cl3(TeO3)4
_exptl_crystal_density_diffrn 5.63
_cell_measurement_temperature 293.
_publ_section_title

;
Synthesis, structures, and luminescent properties of sodium rare-earth
metal(III) chloride oxotellurates(IV), Na2Ln3Cl3[TeO3]4 (Ln = Sm, Eu, Gd, Tb,
Dy, and Ho)
;
loop_
_citation_id
_citation_journal_full
_citation_year
_citation_journal_volume
_citation_page_first
_citation_page_last
_citation_journal_id_ASTM
primary 'Zeitschrift fuer Anorganische und Allgemeine Chemie' 2017 643 1654 1660
ZAACAB
loop_
_publ_author_name
'Charkin, Dmitri O.'
'Zitzer, Sabine'
'Greiner, Stefan'
'Dorofeev, Sergey G.'
'Olenev, Andrei V.'
'Berdonosov, Peter S.'
'Schleid, Thomas'
'Dolgikh, Valery A.'
_cell_length_a 23.8700(14)
_cell_length_b 5.5472(3)
_cell_length_c 16.6650(10)
_cell_angle_alpha 90.
_cell_angle_beta 134.102(3)
_cell_angle_gamma 90.
_cell_volume 1584.59
_cell_formula_units_Z 4
_symmetry_space_group_name_H-M 'C 1 2/c 1'
_symmetry_Int_Tables_number 15
_refine_ls_R_factor_all 0.0325
loop_
_symmetry_equiv_pos_site_id
_symmetry_equiv_pos_as_xyz
1 'x, -y, z+1/2'
2 '-x, -y, -z'
3 '-x, y, -z+1/2'
4 'x, y, z'
5 'x+1/2, -y+1/2, z+1/2'
6 '-x+1/2, -y+1/2, -z'
7 '-x+1/2, y+1/2, -z+1/2'
8 'x+1/2, y+1/2, z'
loop_
_atom_type_symbol
_atom_type_oxidation_number
Na1+ 1
Dy3+ 3
Cl1- -1
Te4+ 4
O2- -2
loop_
_atom_site_label
_atom_site_type_symbol
_atom_site_symmetry_multiplicity
_atom_site_Wyckoff_symbol
_atom_site_fract_x
_atom_site_fract_y
_atom_site_fract_z
_atom_site_B_iso_or_equiv
_atom_site_occupancy
_atom_site_attached_hydrogens
Na1 Na1+ 8 f 0.1658(2) 0.2739(8) 0.5744(3) 0.0278(10) 1 0
Dy1 Dy3+ 4 e 0. 0.24866(10) 0.25 0.00642(14) 1 0
Dy2 Dy3+ 8 f 0.00078(2) 0.25073(7) 0.58532(3) 0.00639(12) 1 0
Cl1 Cl1- 4 d 0.25 0.25 0.5 0.0227(8) 1 0
Cl2 Cl1- 8 f 0.25023(14) 0.2532(4) 0.16902(19) 0.0184(5) 1 0
Te1 Te4+ 8 f 0.13619(3) 0.80143(11) 0.40444(4) 0.00688(14) 1 0
Te2 Te4+ 8 f 0.13328(3) 0.29575(11) 0.19721(4) 0.00745(14) 1 0
O1 O2- 8 f 0.0740(3) 0.5533(11) 0.3848(5) 0.0078(12) 1 0
O2 O2- 8 f 0.0723(4) 0.0762(12) 0.7584(5) 0.0121(13) 1 0
O3 O2- 8 f 0.0875(4) 0.0162(11) 0.4278(5) 0.0099(13) 1 0
O4 O2- 8 f 0.0698(4) 0.0544(11) 0.0916(5) 0.0109(13) 1 0
O5 O2- 8 f 0.0667(4) 0.4182(11) 0.2107(5) 0.0107(13) 1 0
O6 O2- 8 f 0.0856(3) 0.4847(11) 0.5780(5) 0.0091(12) 1 0
loop_
_atom_site_aniso_label
_atom_site_aniso_type_symbol
_atom_site_aniso_U_11
_atom_site_aniso_U_22
_atom_site_aniso_U_33
_atom_site_aniso_U_12
_atom_site_aniso_U_13
_atom_site_aniso_U_23
Na1 Na1+ 0.018(2) 0.028(3) 0.028(2) -0.0036(17) 0.0129(19) -0.0201(19)
Dy1 Dy3+ 0.0095(3) 0.0046(3) 0.0074(3) 0. 0.0068(2) 0.
Dy2 Dy3+ 0.0093(2) 0.0046(2) 0.00669(19) 0.00010(13) 0.00607(17) -0.00006(14)
Cl1 Cl1- 0.0230(18) 0.021(2) 0.0277(18) -0.0041(14) 0.0188(16) -0.0011(14)
Cl2 Cl1- 0.0192(12) 0.0190(14) 0.0174(11) 0.0026(9) 0.0129(10) 0.0007(9)
Te1 Te4+ 0.0073(3) 0.0062(3) 0.0073(3) 0.0009(2) 0.0051(2) 0.0008(2)
Te2 Te4+ 0.0071(3) 0.0079(3) 0.0065(3) 0.0009(2) 0.0045(2) 0.0000(2)
O1 O2- 0.007(3) 0.007(3) 0.010(3) -0.003(2) 0.006(3) -0.003(2)
O2 O2- 0.015(3) 0.013(4) 0.008(3) -0.001(3) 0.008(3) 0.000(2)
O3 O2- 0.015(3) 0.008(3) 0.017(3) 0.002(2) 0.015(3) 0.001(2)
O4 O2- 0.011(3) 0.005(3) 0.008(3) -0.001(2) 0.004(3) 0.003(2)
O5 O2- 0.015(3) 0.009(3) 0.018(3) 0.005(3) 0.015(3) 0.004(3)
O6 O2- 0.006(3) 0.009(3) 0.006(3) -0.003(2) 0.002(3) -0.004(2)
#End of TTdata_433158-ICSD