
#(C) 2019 by FIZ Karlsruhe - Leibniz Institute for Information Infrastructure.  All rights reserved.
data_433785-ICSD
_database_code_ICSD 433785
_audit_creation_date 2019-02-01
_chemical_name_systematic 'Trisodium hexafluorogallate'
_chemical_formula_structural 'Na3 Ga F6'
_chemical_formula_sum 'F6 Ga1 Na3'
_chemical_name_structure_type Perovskite-Na3AlF6
_exptl_crystal_density_diffrn 3.48
_cell_measurement_temperature 90.
_publ_section_title
'Na3GaF6 - A crystal chemical and solid state NMR spectroscopic study'
loop_
_citation_id
_citation_journal_full
_citation_year
_citation_journal_volume
_citation_page_first
_citation_page_last
_citation_journal_id_ASTM
primary 'Zeitschrift fuer Kristallographie - Crystalline Materials' 2018 233 479
487 ZKCMAJ
loop_
_publ_author_name
'Boehnisch, David'
'Seidel, Stefan'
'Benndorf, Christopher'
'Jansen, Thomas'
'Funke, Lena'
'Hoffmann, Rolf-Dieter'
'Heletta, Lukas'
'Stahl, Juliane'
'Johrendt, Dirk'
'Eckert, Hellmut'
'Juestel, Thomas'
'Poettgen, Rainer'
_cell_length_a 5.4370(5)
_cell_length_b 5.6615(9)
_cell_length_c 9.5078(9)
_cell_angle_alpha 90
_cell_angle_beta 124.397(8)
_cell_angle_gamma 90
_cell_volume 241.49
_cell_formula_units_Z 2
_symmetry_space_group_name_H-M 'P 1 21/c 1'
_symmetry_Int_Tables_number 14
_refine_ls_R_factor_all 0.0204
loop_
_symmetry_equiv_pos_site_id
_symmetry_equiv_pos_as_xyz
1 'x, -y+1/2, z+1/2'
2 '-x, -y, -z'
3 '-x, y+1/2, -z+1/2'
4 'x, y, z'
loop_
_atom_type_symbol
_atom_type_oxidation_number
Ga3+ 3
Na1+ 1
F1- -1
Na1+ 1
F1- -1
loop_
_atom_site_label
_atom_site_type_symbol
_atom_site_symmetry_multiplicity
_atom_site_Wyckoff_symbol
_atom_site_fract_x
_atom_site_fract_y
_atom_site_fract_z
_atom_site_B_iso_or_equiv
_atom_site_occupancy
_atom_site_attached_hydrogens
Ga1 Ga3+ 2 a 0 0 0 0.01086(9) 1 0
Na1 Na1+ 2 d 0.5 0 0.5 0.0147(3) 1 0
F1 F1- 4 e 0.1092(2) 0.05348(18) 0.22458(13) 0.0161(4) 1 0
Na2 Na1+ 4 e 0.27052(17) 0.44235(14) 0.25430(10) 0.0185(3) 1 0
F2 F1- 4 e 0.2348(2) 0.72268(19) 0.06998(14) 0.0174(4) 1 0
F3 F1- 4 e 0.3349(2) 0.17529(19) 0.05100(14) 0.0177(4) 1 0
loop_
_atom_site_aniso_label
_atom_site_aniso_type_symbol
_atom_site_aniso_U_11
_atom_site_aniso_U_22
_atom_site_aniso_U_33
_atom_site_aniso_U_12
_atom_site_aniso_U_13
_atom_site_aniso_U_23
Ga1 Ga3+ 0.01049(11) 0.01103(11) 0.01059(11) 0.00007(10) 0.00568(8) -0.00001(9)
Na1 Na1+ 0.0146(4) 0.0149(4) 0.0142(4) 0.0005(4) 0.0078(3) 0.0003(4)
F1 F1- 0.0174(5) 0.0173(4) 0.0133(4) -0.0006(3) 0.0085(4) -0.0010(3)
Na2 Na1+ 0.0185(3) 0.0174(3) 0.0202(3) -0.0009(2) 0.0112(3) -0.0002(2)
F2 F1- 0.0188(5) 0.0155(4) 0.0186(5) 0.0043(4) 0.0111(4) 0.0027(4)
F3 F1- 0.0150(5) 0.0179(5) 0.0187(5) -0.0025(4) 0.0087(4) 0.0013(4)
#End of TTdata_433785-ICSD