
#(C) 2019 by FIZ Karlsruhe - Leibniz Institute for Information Infrastructure.  All rights reserved.
data_4339-ICSD
_database_code_ICSD 4339
_audit_creation_date 1980-01-01
_chemical_name_systematic 'Disodium trizinc silicate'
_chemical_formula_structural 'Na2 Zn3 (Si O4)2'
_chemical_formula_sum 'Na2 O8 Si2 Zn3'
_exptl_crystal_density_diffrn 3.73
_publ_section_title
'Crystal structure of zinc orthosilicate, Na Zn3 (Si O4)2, phase F'
loop_
_citation_id
_citation_journal_full
_citation_year
_citation_journal_volume
_citation_page_first
_citation_page_last
_citation_journal_id_ASTM
primary Kristallografiya 1975 20 46 51 KRISAJ
loop_
_publ_author_name
'Plakhov, G.F.'
'Simonov, M.A.'
'Belov, N.V.'
_cell_length_a 5.124(2)
_cell_length_b 8.830(4)
_cell_length_c 13.504(6)
_cell_angle_alpha 72.59(3)
_cell_angle_beta 101.76(3)
_cell_angle_gamma 89.11(3)
_cell_volume 568.84
_cell_formula_units_Z 3
_symmetry_space_group_name_H-M 'P 1'
_symmetry_Int_Tables_number 1
_refine_ls_R_factor_all 0.038
loop_
_symmetry_equiv_pos_site_id
_symmetry_equiv_pos_as_xyz
1 'x, y, z'
loop_
_atom_type_symbol
_atom_type_oxidation_number
Zn2+ 2
Si4+ 4
Na1+ 1
O2- -2
loop_
_atom_site_label
_atom_site_type_symbol
_atom_site_symmetry_multiplicity
_atom_site_Wyckoff_symbol
_atom_site_fract_x
_atom_site_fract_y
_atom_site_fract_z
_atom_site_B_iso_or_equiv
_atom_site_occupancy
_atom_site_attached_hydrogens
Zn1 Zn2+ 1 a 0 0 0 0.44(3) 1. 0
Zn2 Zn2+ 1 a 0.0742 0.2509 0.1472 0.47(3) 1. 0
Zn3 Zn2+ 1 a 0.7724 0.2883 0.5031 0.61(3) 1. 0
Zn4 Zn2+ 1 a 0.571 0.5168 0.9616 0.51(3) 1. 0
Zn5 Zn2+ 1 a 0.9424 0.4632 0.674 0.57(3) 1. 0
Zn6 Zn2+ 1 a 0.3345 0.8179 0.4635 0.48(3) 1. 0
Zn7 Zn2+ 1 a 0.2565 0.5599 0.3182 0.39(3) 1. 0
Zn8 Zn2+ 1 a 0.0145 0.7156 0.8234 0.54(3) 1. 0
Zn9 Zn2+ 1 a 0.4995 0.2676 0.813 0.54(3) 1. 0
Si1 Si4+ 1 a 0.0955 0.6249 0.062 0.31(3) 1. 0
Si2 Si4+ 1 a 0.5284 0.1575 0.0503 0.33(3) 1. 0
Si3 Si4+ 1 a 0.8124 0.6479 0.4161 0.43(3) 1. 0
Si4 Si4+ 1 a 0.9338 0.1038 0.7493 0.39(3) 1. 0
Si5 Si4+ 1 a 0.236 0.1898 0.3956 0.26(3) 1. 0
Si6 Si4+ 1 a 0.4696 0.6338 0.7169 0.29(3) 1. 0
Na1 Na1+ 1 a 0.6321 0.7806 0.1546 1.20(3) 1. 0
Na2 Na1+ 1 a 0.4993 0.8754 0.8983 1.60(3) 1. 0
Na3 Na1+ 1 a 0.7184 0.0378 0.3082 1.58(3) 1. 0
Na4 Na1+ 1 a 0.3494 0.0203 0.6379 2.73(3) 1. 0
Na5 Na1+ 1 a 0.8372 0.9313 0.559 1.86(3) 1. 0
Na6 Na1+ 1 a 0.6672 0.4076 0.232 1.08(3) 1. 0
O1 O2- 1 a 0.38 0.012 0.023 0.59(3) 1. 0
O2 O2- 1 a 0.905 0.476 0.07 0.60(3) 1. 0
O3 O2- 1 a 0.849 0.098 0.089 0.87(3) 1. 0
O4 O2- 1 a 0.449 0.215 0.144 0.74(3) 1. 0
O5 O2- 1 a 0.315 0.594 0.172 0.67(3) 1. 0
O6 O2- 1 a 0.892 0.78 0.03 0.46(3) 1. 0
O7 O2- 1 a 0.253 0.64 0.968 0.79(3) 1. 0
O8 O2- 1 a 0.428 0.339 0.395 0.74(3) 1. 0
O9 O2- 1 a 0.482 0.311 0.943 0.75(3) 1. 0
O10 O2- 1 a 0.779 0.091 0.848 0.67(3) 1. 0
O11 O2- 1 a 0.021 0.227 0.286 0.62(3) 1. 0
O12 O2- 1 a 0.891 0.606 0.317 0.66(3) 1. 0
O13 O2- 1 a 0.485 0.696 0.382 0.84(3) 1. 0
O14 O2- 1 a 0.641 0.668 0.825 0.48(3) 1. 0
O15 O2- 1 a 0.596 0.463 0.716 0.80(3) 1. 0
O16 O2- 1 a 0.134 0.247 0.74 0.86(3) 1. 0
O17 O2- 1 a 0.711 0.153 0.638 1.05(3) 1. 0
O18 O2- 1 a 0.065 0.159 0.489 0.89(3) 1. 0
O19 O2- 1 a 0.435 0.031 0.419 0.71(3) 1. 0
O20 O2- 1 a 0.884 0.491 0.52 0.91(3) 1. 0
O21 O2- 1 a 0.161 0.612 0.729 0.82(3) 1. 0
O22 O2- 1 a 0.95 0.802 0.437 0.81(3) 1. 0
O23 O2- 1 a 0.5 0.773 0.616 1.04(3) 1. 0
O24 O2- 1 a 0.096 0.938 0.769 0.85(3) 1. 0
#End of TTdata_4339-ICSD