
#(C) 2019 by FIZ Karlsruhe - Leibniz Institute for Information Infrastructure.  All rights reserved.
data_434067-ICSD
_database_code_ICSD 434067
_audit_creation_date 2019-08-01
_chemical_name_systematic
'Decasodium teracesium dodecakis(molybdato)-pentacobaltate'
_chemical_formula_structural 'Na10 (Cs3.77 Na0.23) Co5 (Mo O4)12'
_chemical_formula_sum 'Co5 Cs3.77 Mo12 Na10.23 O48'
_exptl_crystal_density_diffrn 4.1
_cell_measurement_temperature 296.
_publ_section_title

;
Synthesis, structure, and conductivity of alluaudite-related phases in the
Na2MoO4-Cs2MoO4-CoMoO4 system
;
loop_
_citation_id
_citation_journal_full
_citation_year
_citation_journal_volume
_citation_page_first
_citation_page_last
_citation_journal_id_ASTM
primary 'European Journal of Inorganic Chemistry' 2019 2019 277 286 EJICFO
loop_
_publ_author_name
'Yudin, Vasiliy N.'
'Zolotova, Evgeniya S.'
'Solodovnikov, Sergey F.'
'Solodovnikova, Zoya A.'
'Korolkov, Iliya V.'
'Stefanovich, Sergey Yu.'
'Kuchumov, Boris M.'
_cell_length_a 13.6572(3)
_cell_length_b 12.5063(3)
_cell_length_c 27.9898(5)
_cell_angle_alpha 90
_cell_angle_beta 90
_cell_angle_gamma 90
_cell_volume 4780.68
_cell_formula_units_Z 4
_symmetry_space_group_name_H-M 'P b c a'
_symmetry_Int_Tables_number 61
_refine_ls_R_factor_all 0.0257
loop_
_symmetry_equiv_pos_site_id
_symmetry_equiv_pos_as_xyz
1 'x+1/2, y, -z+1/2'
2 'x, -y+1/2, z+1/2'
3 '-x+1/2, y+1/2, z'
4 '-x, -y, -z'
5 '-x+1/2, -y, z+1/2'
6 '-x, y+1/2, -z+1/2'
7 'x+1/2, -y+1/2, -z'
8 'x, y, z'
loop_
_atom_type_symbol
_atom_type_oxidation_number
Mo6+ 6
Cs1+ 1
Na1+ 1
Cs1+ 1
Na1+ 1
Co2+ 2
Na1+ 1
Co2+ 2
Na1+ 1
Co2+ 2
Na1+ 1
Co2+ 2
Na1+ 1
O2- -2
loop_
_atom_site_label
_atom_site_type_symbol
_atom_site_symmetry_multiplicity
_atom_site_Wyckoff_symbol
_atom_site_fract_x
_atom_site_fract_y
_atom_site_fract_z
_atom_site_B_iso_or_equiv
_atom_site_occupancy
_atom_site_attached_hydrogens
Mo1 Mo6+ 8 c 0.12048(2) 0.21661(2) 0.39865(2) 0.01367(7) 1 0
Mo2 Mo6+ 8 c 0.39795(2) 0.18084(2) 0.22117(2) 0.01513(7) 1 0
Mo3 Mo6+ 8 c 0.39425(2) 0.24023(2) 0.46953(2) 0.01366(7) 1 0
Mo4 Mo6+ 8 c 0.10803(2) 0.19876(2) 0.15174(2) 0.01396(7) 1 0
Mo5 Mo6+ 8 c 0.21495(2) 0.47033(2) 0.05614(2) 0.01506(7) 1 0
Mo6 Mo6+ 8 c 0.27907(2) 0.42590(3) 0.31411(2) 0.01519(7) 1 0
Cs1 Cs1+ 8 c 0.49446(2) 0.47400(2) 0.06861(2) 0.02055(9) 0.9510(14) 0
Na1 Na1+ 8 c 0.49446(2) 0.47400(2) 0.06861(2) 0.02055(9) 0.0490(14) 0
Cs2 Cs1+ 8 c 0.50814(2) 0.44848(2) 0.21649(2) 0.02312(9) 0.9363(11) 0
Na2 Na1+ 8 c 0.5306(18) 0.410(2) 0.2615(9) 0.028(6) 0.0637(11) 0
Na3 Na1+ 8 c 0.49935(12) 0.46548(13) 0.37303(6) 0.0307(4) 1 0
Na4 Na1+ 8 c 0.26000(12) 0.47606(13) 0.43526(5) 0.0250(4) 1 0
Na5 Na1+ 8 c 0.23527(11) 0.44107(12) 0.18583(5) 0.0216(3) 1 0
Na6 Na1+ 4 b 0. 0. 0.5 0.0698(12) 1 0
Co1 Co2+ 8 c 0.34320(4) 0.16844(4) 0.34984(2) 0.01228(12) 0.9424(14) 0
Na7 Na1+ 8 c 0.34320(4) 0.16844(4) 0.34984(2) 0.01228(12) 0.0576(14) 0
Co2 Co2+ 8 c 0.16572(4) 0.29323(4) 0.52000(2) 0.01234(13) 0.8312(14) 0
Na8 Na1+ 8 c 0.16572(4) 0.29323(4) 0.52000(2) 0.01234(13) 0.1688(14) 0
Co3 Co2+ 8 c 0.17262(5) 0.18724(5) 0.27118(2) 0.01387(14) 0.6883(14) 0
Na9 Na1+ 8 c 0.17262(5) 0.18724(5) 0.27118(2) 0.01387(14) 0.3117(14) 0
Co4 Co2+ 8 c 0.34192(11) 0.23424(11) 0.10489(4) 0.0205(3) 0.0380(15) 0
Na10 Na1+ 8 c 0.34192(11) 0.23424(11) 0.10489(4) 0.0205(3) 0.9620(15) 0
O1 O2- 8 c 0.0076(2) 0.2674(2) 0.38181(9) 0.0246(6) 1 0
O2 O2- 8 c 0.1039(2) 0.0855(2) 0.41824(9) 0.0245(6) 1 0
O3 O2- 8 c 0.16869(19) 0.3018(2) 0.44382(8) 0.0194(6) 1 0
O4 O2- 8 c 0.1961(2) 0.2153(2) 0.34609(8) 0.0219(6) 1 0
O5 O2- 8 c 0.3469(2) 0.2881(2) 0.19016(9) 0.0214(6) 1 0
O6 O2- 8 c 0.4000(2) 0.0659(2) 0.18593(9) 0.0260(6) 1 0
O7 O2- 8 c 0.5192(2) 0.2145(2) 0.23684(10) 0.0284(7) 1 0
O8 O2- 8 c 0.3309(2) 0.1542(2) 0.27544(8) 0.0221(6) 1 0
O9 O2- 8 c 0.4115(2) 0.3719(2) 0.45122(9) 0.0234(6) 1 0
O10 O2- 8 c 0.3210(2) 0.2398(2) 0.52130(8) 0.0252(6) 1 0
O11 O2- 8 c 0.5093(2) 0.1837(2) 0.48357(9) 0.0232(6) 1 0
O12 O2- 8 c 0.3394(2) 0.1593(2) 0.42429(8) 0.0192(6) 1 0
O13 O2- 8 c 0.0976(2) 0.3338(2) 0.16403(9) 0.0226(6) 1 0
O14 O2- 8 c 0.1687(2) 0.1828(2) 0.09630(9) 0.0261(6) 1 0
O15 O2- 8 c 0.1762(2) 0.1320(2) 0.19677(10) 0.0311(7) 1 0
O16 O2- 8 c -0.00954(19) 0.1383(2) 0.14793(8) 0.0195(6) 1 0
O17 O2- 8 c 0.1262(2) 0.5572(2) 0.07805(9) 0.0265(6) 1 0
O18 O2- 8 c 0.2840(2) 0.4185(2) 0.10369(8) 0.0202(6) 1 0
O19 O2- 8 c 0.1453(2) 0.3715(2) 0.02562(9) 0.0259(6) 1 0
O20 O2- 8 c 0.29474(19) 0.5394(2) 0.01538(8) 0.0197(6) 1 0
O21 O2- 8 c 0.3545(2) 0.5224(2) 0.28819(11) 0.0348(8) 1 0
O22 O2- 8 c 0.3606(2) 0.3401(2) 0.34462(9) 0.0226(6) 1 0
O23 O2- 8 c 0.2126(2) 0.3620(2) 0.26785(8) 0.0264(7) 1 0
O24 O2- 8 c 0.19683(19) 0.4917(2) 0.35399(8) 0.0193(6) 1 0
loop_
_atom_site_aniso_label
_atom_site_aniso_type_symbol
_atom_site_aniso_U_11
_atom_site_aniso_U_22
_atom_site_aniso_U_33
_atom_site_aniso_U_12
_atom_site_aniso_U_13
_atom_site_aniso_U_23
Mo1 Mo6+ 0.01405(17) 0.01401(15) 0.01296(12) -0.00056(12) 0.00003(11)
-0.00159(11)
Mo2 Mo6+ 0.02100(18) 0.01245(15) 0.01195(12) 0.00068(12) -0.00159(12)
-0.00087(11)
Mo3 Mo6+ 0.01681(17) 0.01344(15) 0.01073(12) -0.00072(12) -0.00062(12)
-0.00060(11)
Mo4 Mo6+ 0.01301(16) 0.01399(15) 0.01488(13) 0.00056(12) 0.00081(12) 0.00198(12)
Mo5 Mo6+ 0.01304(17) 0.01912(16) 0.01301(12) 0.00050(12) 0.00090(12) 0.00407(12)
Mo6 Mo6+ 0.01480(17) 0.01881(16) 0.01196(12) 0.00404(12) 0.00199(12) 0.00187(12)
Cs1 Cs1+ 0.02291(16) 0.01559(13) 0.02315(12) 0.00073(10) -0.00208(10)
0.00014(10)
Na1 Na1+ 0.02291(16) 0.01559(13) 0.02315(12) 0.00073(10) -0.00208(10)
0.00014(10)
Cs2 Cs1+ 0.01847(15) 0.01648(14) 0.03443(15) -0.00180(10) 0.00174(11)
0.00183(11)
Na2 Na1+ 0.017(14) 0.031(14) 0.036(14) -0.017(11) -0.008(11) -0.005(12)
Na3 Na1+ 0.0229(10) 0.0296(9) 0.0396(9) 0.0024(7) 0.0017(8) -0.0119(8)
Na4 Na1+ 0.0228(9) 0.0344(9) 0.0178(7) -0.0039(7) -0.0007(6) 0.0055(7)
Na5 Na1+ 0.0202(9) 0.0259(8) 0.0187(6) 0.0034(6) -0.0003(6) -0.0015(6)
Na6 Na1+ 0.0276(17) 0.085(2) 0.097(3) 0.0248(16) -0.0250(16) -0.071(2)
Co1 Co2+ 0.0117(3) 0.0153(3) 0.0098(2) 0.00191(19) -0.00186(18) -0.00063(18)
Na7 Na1+ 0.0117(3) 0.0153(3) 0.0098(2) 0.00191(19) -0.00186(18) -0.00063(18)
Co2 Co2+ 0.0135(3) 0.0132(3) 0.0103(2) 0.0006(2) 0.0006(2) -0.0005(2)
Na8 Na1+ 0.0135(3) 0.0132(3) 0.0103(2) 0.0006(2) 0.0006(2) -0.0005(2)
Co3 Co2+ 0.0130(3) 0.0147(3) 0.0139(3) 0.0010(2) -0.0032(2) -0.0026(2)
Na9 Na1+ 0.0130(3) 0.0147(3) 0.0139(3) 0.0010(2) -0.0032(2) -0.0026(2)
Co4 Co2+ 0.0184(8) 0.0266(8) 0.0164(6) -0.0018(6) 0.0007(6) -0.0026(6)
Na10 Na1+ 0.0184(8) 0.0266(8) 0.0164(6) -0.0018(6) 0.0007(6) -0.0026(6)
O1 O2- 0.0177(16) 0.0282(15) 0.0280(13) 0.0014(12) -0.0041(12) -0.0024(12)
O2 O2- 0.0286(17) 0.0161(13) 0.0288(13) -0.0053(12) -0.0049(12) 0.0009(11)
O3 O2- 0.0195(15) 0.0210(14) 0.0178(11) -0.0003(11) 0.0012(11) -0.0042(10)
O4 O2- 0.0201(15) 0.0301(16) 0.0154(11) 0.0040(12) 0.0001(11) -0.0005(11)
O5 O2- 0.0209(16) 0.0226(14) 0.0206(12) 0.0055(11) 0.0028(11) 0.0063(11)
O6 O2- 0.0297(18) 0.0210(14) 0.0272(13) -0.0019(12) 0.0045(12) -0.0110(12)
O7 O2- 0.0340(19) 0.0205(15) 0.0305(14) 0.0003(12) -0.0119(13) 0.0006(12)
O8 O2- 0.0333(18) 0.0201(14) 0.0129(10) 0.0013(12) -0.0057(11) -0.0001(10)
O9 O2- 0.0279(17) 0.0156(13) 0.0268(13) -0.0030(11) -0.0060(12) 0.0024(11)
O10 O2- 0.0307(18) 0.0312(16) 0.0138(11) -0.0029(13) 0.0021(11) -0.0043(11)
O11 O2- 0.0238(16) 0.0198(14) 0.0262(13) 0.0011(11) -0.0045(12) 0.0026(11)
O12 O2- 0.0230(16) 0.0220(14) 0.0126(10) -0.0004(11) -0.0014(10) -0.0036(10)
O13 O2- 0.0213(16) 0.0179(13) 0.0285(13) -0.0007(11) -0.0012(12) -0.0028(11)
O14 O2- 0.0242(17) 0.0293(16) 0.0247(13) -0.0024(13) 0.0068(12) -0.0014(12)
O15 O2- 0.0214(17) 0.0386(18) 0.0333(15) 0.0081(13) -0.0002(13) 0.0163(14)
O16 O2- 0.0176(15) 0.0178(13) 0.0233(12) -0.0024(11) 0.0011(11) -0.0032(11)
O17 O2- 0.0243(17) 0.0223(15) 0.0330(14) 0.0037(12) 0.0099(12) 0.0030(12)
O18 O2- 0.0238(16) 0.0230(14) 0.0139(11) 0.0030(11) -0.0014(11) 0.0041(10)
O19 O2- 0.0205(16) 0.0270(15) 0.0301(14) -0.0023(12) -0.0046(12) -0.0020(12)
O20 O2- 0.0175(15) 0.0271(15) 0.0145(10) -0.0021(11) 0.0005(10) 0.0050(11)
O21 O2- 0.0318(19) 0.0256(16) 0.0471(18) 0.0075(13) 0.0216(15) 0.0116(14)
O22 O2- 0.0221(16) 0.0191(14) 0.0265(13) 0.0009(11) -0.0098(12) 0.0018(11)
O23 O2- 0.0252(17) 0.0413(17) 0.0127(11) 0.0147(13) -0.0035(11) -0.0035(12)
O24 O2- 0.0176(15) 0.0247(14) 0.0157(11) 0.0042(11) 0.0019(10) -0.0020(11)
#End of TTdata_434067-ICSD