
#(C) 2019 by FIZ Karlsruhe - Leibniz Institute for Information Infrastructure.  All rights reserved.
data_434037-ICSD
_database_code_ICSD 434037
_audit_creation_date 2018-08-01
_chemical_name_systematic 'Disodium tin(IV) tris(carbodiimide)'
_chemical_formula_structural 'Na2 Sn (C N2)3'
_chemical_formula_sum 'C3 N6 Na2 Sn1'
_exptl_crystal_density_diffrn 3.04
_cell_measurement_temperature 298.
_publ_section_title
'Layered carbodiimides A2M(CN2)3 with tetravalent cations M = Sn, Zr, and Hf'
loop_
_citation_id
_citation_journal_full
_citation_year
_citation_journal_volume
_citation_page_first
_citation_page_last
_citation_journal_id_ASTM
primary 'European Journal of Inorganic Chemistry' 2018 2018 1624 1630 EJICFO
loop_
_publ_author_name
'Dolabdjian, Konstantin'
'Castro, Cristina'
'Meyer, Hans-Juergen'
_cell_length_a 5.93228(3)
_cell_length_b 9.77448(6)
_cell_length_c 10.72781(6)
_cell_angle_alpha 90.
_cell_angle_beta 90.
_cell_angle_gamma 90.
_cell_volume 622.05
_cell_formula_units_Z 4
_symmetry_space_group_name_H-M 'P n n a'
_symmetry_Int_Tables_number 52
_refine_ls_R_factor_all 0.0446
loop_
_symmetry_equiv_pos_site_id
_symmetry_equiv_pos_as_xyz
1 'x+1/2, -y+1/2, z+1/2'
2 '-x, y+1/2, z+1/2'
3 'x+1/2, y, -z'
4 '-x, -y, -z'
5 '-x+1/2, y+1/2, -z+1/2'
6 'x, -y+1/2, -z+1/2'
7 '-x+1/2, -y, z'
8 'x, y, z'
loop_
_atom_type_symbol
_atom_type_oxidation_number
Sn4+ 4
Na1+ 1
C4+ 4
N3- -3
C4+ 4
N3- -3
loop_
_atom_site_label
_atom_site_type_symbol
_atom_site_symmetry_multiplicity
_atom_site_Wyckoff_symbol
_atom_site_fract_x
_atom_site_fract_y
_atom_site_fract_z
_atom_site_B_iso_or_equiv
_atom_site_occupancy
_atom_site_attached_hydrogens
Sn1 Sn4+ 4 c 0.25 0. 0.92060(14) 0.0285(5) 1. 0
Na1 Na1+ 4 c 0.25 0. 0.2562(3) 0.037(4) 1. 0
Na2 Na1+ 4 c 0.25 0. 0.5812(4) 0.035(3) 1. 0
C1 C4+ 8 e 0.5814(6) 0.7561(8) 0.9240(6) 0.0274(4) 1. 0
N1 N3- 8 e 0.5626(5) 0.8904(6) 0.9313(5) 0.0274(4) 1. 0
N2 N3- 8 e 0.5916(5) 0.6381(6) 0.9197(5) 0.0274(4) 1. 0
C2 C4+ 4 d 0.8749(11) 0.25 0.25 0.0274(4) 1. 0
N3 N3- 8 e 0.6144(6) 0.8700(7) 0.2246(9) 0.0274(4) 1. 0
loop_
_atom_site_aniso_label
_atom_site_aniso_type_symbol
_atom_site_aniso_U_11
_atom_site_aniso_U_22
_atom_site_aniso_U_33
_atom_site_aniso_U_12
_atom_site_aniso_U_13
_atom_site_aniso_U_23
Sn1 Sn4+ 0.0293(5) 0.0263(5) 0.0300(5) -0.001(2) 0. 0.
Na1 Na1+ 0.042(4) 0.035(3) 0.033(4) -0.009(17) 0. 0.
Na2 Na1+ 0.034(3) 0.033(3) 0.038(3) -0.006(12) 0. 0.
#End of TTdata_434037-ICSD