
#(C) 2019 by FIZ Karlsruhe - Leibniz Institute for Information Infrastructure.  All rights reserved.
data_434050-ICSD
_database_code_ICSD 434050
_audit_creation_date 2019-02-01
_chemical_name_systematic
'Sodium-2.11 strontium-0.44 hexazirconium nonakis(phosphate)'
_chemical_formula_structural 'Na2.11 Sr0.44 Zr6 (P O4)9'
_chemical_formula_sum 'Na2.11 O36 P9 Sr0.44 Zr6'
_exptl_crystal_density_diffrn 3.22
_cell_measurement_temperature 300.
_publ_section_title

;
Crystal structures, phase transitions and thermal expansion properties of
NaZr2(PO4)3-SrZr4(PO4)6 solid solutions
;
loop_
_citation_id
_citation_journal_full
_citation_year
_citation_journal_volume
_citation_page_first
_citation_page_last
_citation_journal_id_ASTM
primary 'Inorganic Chemistry Frontiers' 2018 5 619 625 ICFNAW
loop_
_publ_author_name
'Liu, Ying'
'Molokeev, Maxim S.'
'Liu, Quanlin'
'Xia, Zhiguo'
_cell_length_a 8.77136(30)
_cell_length_b 8.77136(30)
_cell_length_c 23.0576(11)
_cell_angle_alpha 90
_cell_angle_beta 90
_cell_angle_gamma 120
_cell_volume 1536.32
_cell_formula_units_Z 2
_symmetry_space_group_name_H-M 'R -3 H'
_symmetry_Int_Tables_number 148
_refine_ls_R_factor_all 0.0977
loop_
_symmetry_equiv_pos_site_id
_symmetry_equiv_pos_as_xyz
1 'x-y, x, -z'
2 'y, -x+y, -z'
3 '-x, -y, -z'
4 '-x+y, -x, z'
5 '-y, x-y, z'
6 'x, y, z'
7 'x-y+2/3, x+1/3, -z+1/3'
8 'y+2/3, -x+y+1/3, -z+1/3'
9 '-x+2/3, -y+1/3, -z+1/3'
10 '-x+y+2/3, -x+1/3, z+1/3'
11 '-y+2/3, x-y+1/3, z+1/3'
12 'x+2/3, y+1/3, z+1/3'
13 'x-y+1/3, x+2/3, -z+2/3'
14 'y+1/3, -x+y+2/3, -z+2/3'
15 '-x+1/3, -y+2/3, -z+2/3'
16 '-x+y+1/3, -x+2/3, z+2/3'
17 '-y+1/3, x-y+2/3, z+2/3'
18 'x+1/3, y+2/3, z+2/3'
loop_
_atom_type_symbol
_atom_type_oxidation_number
Sr2+ 2
Na1+ 1
Zr4+ 4
P5+ 5
O2- -2
loop_
_atom_site_label
_atom_site_type_symbol
_atom_site_symmetry_multiplicity
_atom_site_Wyckoff_symbol
_atom_site_fract_x
_atom_site_fract_y
_atom_site_fract_z
_atom_site_B_iso_or_equiv
_atom_site_occupancy
_atom_site_attached_hydrogens
Sr1 Sr2+ 3 a 0 0 0 1.26(32) 0.296(11) 0
Na1 Na1+ 3 a 0 0 0 1.26(32) 0.704(11) 0
Na2 Na1+ 3 b 0 0 0.5 5.9(15) 0.704(11) 0
Zr1 Zr4+ 6 c 0 0 0.14830(17) 0.69(12) 1 0
Zr2 Zr4+ 6 c 0 0 0.64496(18) 1.51(13) 1 0
P1 P5+ 18 f 0.29555(73) 0.0081(12) 0.25343(37) 1.27(11) 1 0
O1 O2- 18 f 0.1780(16) -0.0001(16) 0.19619(56) 0.71(12) 1 0
O2 O2- 18 f 0.0506(15) -0.1747(17) 0.69622(51) 0.71(12) 1 0
O3 O2- 18 f 0.1858(15) 0.1658(15) 0.08425(52) 0.71(12) 1 0
O4 O2- 18 f -0.1724(16) -0.2040(15) 0.59719(56) 0.71(12) 1 0
#End of TTdata_434050-ICSD