
#(C) 2019 by FIZ Karlsruhe - Leibniz Institute for Information Infrastructure.  All rights reserved.
data_434079-ICSD
_database_code_ICSD 434079
_audit_creation_date 2018-08-01
_chemical_name_systematic Dihydrogenoxide
_chemical_formula_structural '(H2 O)1.928 (Na0.056 K0.032 Cl0.088)'
_chemical_formula_sum 'H3.856 Cl0.088 K0.032 Na0.056 O1.928'
_chemical_name_mineral 'Ice VII'
_exptl_crystal_density_diffrn 2.12
_publ_section_title

;
Ice-VII inclusions in diamonds: Evidence for aqueous fluid in Earth's deep
mantle
;
loop_
_citation_id
_citation_journal_full
_citation_year
_citation_journal_volume
_citation_page_first
_citation_page_last
_citation_journal_id_ASTM
primary 'Science (Washington, DC, United States)' 2018 359 1136 1139 SCIEAS
loop_
_publ_author_name
'Tschauner, O.'
'Huang, S.'
'Greenberg, E.'
'Prakapenka, V.B.'
'Ma, C.'
'Rossman, G.R.'
'Shen, A.H.'
'Zhang, D.'
'Newville, M.'
'Lanzirotti, A.'
'Tait, K.'
_cell_length_a 3.1633(2)
_cell_length_b 3.1633(2)
_cell_length_c 3.1633(2)
_cell_angle_alpha 90.
_cell_angle_beta 90.
_cell_angle_gamma 90.
_cell_volume 31.65
_cell_formula_units_Z 1
_symmetry_space_group_name_H-M 'P n -3 m S'
_symmetry_Int_Tables_number 224
_refine_ls_R_factor_all 0.0457
loop_
_symmetry_equiv_pos_site_id
_symmetry_equiv_pos_as_xyz
1 'y+1/2, x+1/2, -z+1/2'
2 'z+1/2, x+1/2, -y+1/2'
3 'z+1/2, y+1/2, -x+1/2'
4 'y+1/2, z+1/2, -x+1/2'
5 'x+1/2, z+1/2, -y+1/2'
6 'x+1/2, y+1/2, -z+1/2'
7 'y+1/2, -x+1/2, z+1/2'
8 'z+1/2, -x+1/2, y+1/2'
9 'z+1/2, -y+1/2, x+1/2'
10 'y+1/2, -z+1/2, x+1/2'
11 'x+1/2, -z+1/2, y+1/2'
12 'x+1/2, -y+1/2, z+1/2'
13 '-y+1/2, x+1/2, z+1/2'
14 '-z+1/2, x+1/2, y+1/2'
15 '-z+1/2, y+1/2, x+1/2'
16 '-y+1/2, z+1/2, x+1/2'
17 '-x+1/2, z+1/2, y+1/2'
18 '-x+1/2, y+1/2, z+1/2'
19 '-y+1/2, -x+1/2, -z+1/2'
20 '-z+1/2, -x+1/2, -y+1/2'
21 '-z+1/2, -y+1/2, -x+1/2'
22 '-y+1/2, -z+1/2, -x+1/2'
23 '-x+1/2, -z+1/2, -y+1/2'
24 '-x+1/2, -y+1/2, -z+1/2'
25 '-y, -x, z'
26 '-z, -x, y'
27 '-z, -y, x'
28 '-y, -z, x'
29 '-x, -z, y'
30 '-x, -y, z'
31 '-y, x, -z'
32 '-z, x, -y'
33 '-z, y, -x'
34 '-y, z, -x'
35 '-x, z, -y'
36 '-x, y, -z'
37 'y, -x, -z'
38 'z, -x, -y'
39 'z, -y, -x'
40 'y, -z, -x'
41 'x, -z, -y'
42 'x, -y, -z'
43 'y, x, z'
44 'z, x, y'
45 'z, y, x'
46 'y, z, x'
47 'x, z, y'
48 'x, y, z'
loop_
_atom_type_symbol
_atom_type_oxidation_number
O2- -2
Na1+ 1
K1+ 1
Cl1- -1
H1+ 1
loop_
_atom_site_label
_atom_site_type_symbol
_atom_site_symmetry_multiplicity
_atom_site_Wyckoff_symbol
_atom_site_fract_x
_atom_site_fract_y
_atom_site_fract_z
_atom_site_B_iso_or_equiv
_atom_site_occupancy
_atom_site_attached_hydrogens
O1 O2- 8 e 0.489(7) 0.489 0.489 0.0016(7) 0.241(2) 0
Na1 Na1+ 8 e 0.489(7) 0.489 0.489 0.0016(7) 0.007(1) 0
K1 K1+ 8 e 0.489(7) 0.489 0.489 0.0016(7) 0.004(1) 0
Cl1 Cl1- 8 e 0.489(7) 0.489 0.489 0.0016(7) 0.011(2) 0
H1 H1+ 8 e 0.32(2) 0.32 0.32 0.0016 0.482 0
#End of TTdata_434079-ICSD