
#(C) 2019 by FIZ Karlsruhe - Leibniz Institute for Information Infrastructure.  All rights reserved.
data_434047-ICSD
_database_code_ICSD 434047
_audit_creation_date 2019-02-01
_chemical_name_systematic
'Sodium-2.62 strontium-0.19 hexazirconium nonakis(phosphate)'
_chemical_formula_structural 'Na2.62 Sr0.19 Zr6 (P O4)9'
_chemical_formula_sum 'Na2.62 O36 P9 Sr0.19 Zr6'
_chemical_name_structure_type NaZr2(PO4)3
_exptl_crystal_density_diffrn 3.2
_cell_measurement_temperature 300.
_publ_section_title

;
Crystal structures, phase transitions and thermal expansion properties of
NaZr2(PO4)3-SrZr4(PO4)6 solid solutions
;
loop_
_citation_id
_citation_journal_full
_citation_year
_citation_journal_volume
_citation_page_first
_citation_page_last
_citation_journal_id_ASTM
primary 'Inorganic Chemistry Frontiers' 2018 5 619 625 ICFNAW
loop_
_publ_author_name
'Liu, Ying'
'Molokeev, Maxim S.'
'Liu, Quanlin'
'Xia, Zhiguo'
_cell_length_a 8.80346(12)
_cell_length_b 8.80346(12)
_cell_length_c 22.85024(34)
_cell_angle_alpha 90
_cell_angle_beta 90
_cell_angle_gamma 120
_cell_volume 1533.66
_cell_formula_units_Z 2
_symmetry_space_group_name_H-M 'R -3 c H'
_symmetry_Int_Tables_number 167
_refine_ls_R_factor_all 0.0711
loop_
_symmetry_equiv_pos_site_id
_symmetry_equiv_pos_as_xyz
1 'x-y, -y, -z+1/2'
2 '-x, -x+y, -z+1/2'
3 'y, x, -z+1/2'
4 'x-y, x, -z'
5 'y, -x+y, -z'
6 '-x, -y, -z'
7 '-x+y, y, z+1/2'
8 'x, x-y, z+1/2'
9 '-y, -x, z+1/2'
10 '-x+y, -x, z'
11 '-y, x-y, z'
12 'x, y, z'
13 'x-y+2/3, -y+1/3, -z+5/6'
14 '-x+2/3, -x+y+1/3, -z+5/6'
15 'y+2/3, x+1/3, -z+5/6'
16 'x-y+2/3, x+1/3, -z+1/3'
17 'y+2/3, -x+y+1/3, -z+1/3'
18 '-x+2/3, -y+1/3, -z+1/3'
19 '-x+y+2/3, y+1/3, z+5/6'
20 'x+2/3, x-y+1/3, z+5/6'
21 '-y+2/3, -x+1/3, z+5/6'
22 '-x+y+2/3, -x+1/3, z+1/3'
23 '-y+2/3, x-y+1/3, z+1/3'
24 'x+2/3, y+1/3, z+1/3'
25 'x-y+1/3, -y+2/3, -z+1/6'
26 '-x+1/3, -x+y+2/3, -z+1/6'
27 'y+1/3, x+2/3, -z+1/6'
28 'x-y+1/3, x+2/3, -z+2/3'
29 'y+1/3, -x+y+2/3, -z+2/3'
30 '-x+1/3, -y+2/3, -z+2/3'
31 '-x+y+1/3, y+2/3, z+1/6'
32 'x+1/3, x-y+2/3, z+1/6'
33 '-y+1/3, -x+2/3, z+1/6'
34 '-x+y+1/3, -x+2/3, z+2/3'
35 '-y+1/3, x-y+2/3, z+2/3'
36 'x+1/3, y+2/3, z+2/3'
loop_
_atom_type_symbol
_atom_type_oxidation_number
Na1+ 1
Sr2+ 2
Zr4+ 4
P5+ 5
O2- -2
loop_
_atom_site_label
_atom_site_type_symbol
_atom_site_symmetry_multiplicity
_atom_site_Wyckoff_symbol
_atom_site_fract_x
_atom_site_fract_y
_atom_site_fract_z
_atom_site_B_iso_or_equiv
_atom_site_occupancy
_atom_site_attached_hydrogens
Na1 Na1+ 6 b 0 0 0 2.91(19) 0.874(16) 0
Sr1 Sr2+ 6 b 0 0 0 2.91(19) 0.0630(80) 0
Zr1 Zr4+ 12 c 0 0 0.145922(32) 0.534(37) 1 0
P1 P5+ 18 e 0.29082(22) 0 0.25 0.900(57) 1 0
O1 O2- 36 f 0.18154(39) -0.02182(42) 0.19516(14) 1.028(63) 1 0
O2 O2- 36 f 0.19462(33) 0.16966(34) 0.08797(14) 1.028(63) 1 0
#End of TTdata_434047-ICSD