
#(C) 2019 by FIZ Karlsruhe - Leibniz Institute for Information Infrastructure.  All rights reserved.
data_4362-ICSD
_database_code_ICSD 4362
_audit_creation_date 1980-01-01
_audit_update_record 2008-08-01
_chemical_name_systematic 'Sodium potassium cuprotetrasilicate'
_chemical_formula_structural 'Na K (Cu Si4 O10)'
_chemical_formula_sum 'Cu1 K1 Na1 O10 Si4'
_chemical_name_structure_type KNaFeS14O10
_chemical_name_mineral Lithidionite
_exptl_crystal_density_diffrn 2.89
_publ_section_title
'Re-examination and crystal structure analysis of litidionite'
loop_
_citation_id
_citation_journal_full
_citation_year
_citation_journal_volume
_citation_page_first
_citation_page_last
_citation_journal_id_ASTM
primary 'American Mineralogist' 1975 60 471 474 AMMIAY
loop_
_publ_author_name
'Pozas, J.M.M.'
'Rossi, G.'
'Tazzoli, V.'
_cell_length_a 9.80(1)
_cell_length_b 8.01(1)
_cell_length_c 6.97(1)
_cell_angle_alpha 114.12(8)
_cell_angle_beta 99.52(6)
_cell_angle_gamma 105.59(8)
_cell_volume 456.81
_cell_formula_units_Z 2
_symmetry_space_group_name_H-M 'P -1'
_symmetry_Int_Tables_number 2
_refine_ls_R_factor_all 0.032
loop_
_symmetry_equiv_pos_site_id
_symmetry_equiv_pos_as_xyz
1 '-x, -y, -z'
2 'x, y, z'
loop_
_atom_type_symbol
_atom_type_oxidation_number
Cu2+ 2
Si4+ 4
O2- -2
K1+ 1
Na1+ 1
loop_
_atom_site_label
_atom_site_type_symbol
_atom_site_symmetry_multiplicity
_atom_site_Wyckoff_symbol
_atom_site_fract_x
_atom_site_fract_y
_atom_site_fract_z
_atom_site_B_iso_or_equiv
_atom_site_occupancy
_atom_site_attached_hydrogens
Cu1 Cu2+ 2 i 0.4122(1) 0.1287(1) 0.1624(1) 0.74(8) 1. 0
Si1 Si4+ 2 i 0.8593(1) 0.1742(2) 0.8119(2) 0.65(8) 1. 0
Si2 Si4+ 2 i 0.7222(1) 0.3545(2) 0.5664(2) 0.66(8) 1. 0
Si3 Si4+ 2 i 0.2110(1) 0.2877(2) 0.9582(2) 0.59(8) 1. 0
Si4 Si4+ 2 i 0.7256(1) 0.3825(2) 0.1557(2) 0.68(8) 1. 0
O1 O2- 2 i 0.5682(3) 0.2072(4) 0.0323(4) 1.25(8) 1. 0
O2 O2- 2 i 0.2716(3) 0.1161(4) 0.9166(5) 1.04(8) 1. 0
O3 O2- 2 i 0.8535(3) 0.3320(4) 0.0452(5) 1.22(8) 1. 0
O4 O2- 2 i 0.0302(3) 0.1851(4) 0.8549(5) 1.64(8) 1. 0
O5 O2- 2 i 0.2521(3) 0.0432(4) 0.2803(5) 1.34(8) 1. 0
O6 O2- 2 i 0.7943(3) 0.4314(4) 0.4102(4) 1.20(8) 1. 0
O7 O2- 2 i 0.5561(3) 0.2017(4) 0.4459(5) 1.30(8) 1. 0
O8 O2- 2 i 0.2562(4) 0.4471(5) 0.2155(5) 1.76(8) 1. 0
O9 O2- 2 i 0.8331(3) 0.2535(4) 0.6323(5) 1.30(8) 1. 0
O10 O2- 2 i 0.2716(3) 0.4072(4) 0.8286(5) 1.61(8) 1. 0
K1 K1+ 2 i 0.0038(1) 0.2033(1) 0.3348(2) 1.58(8) 1. 0
Na1 Na1+ 2 i 0.4090(2) 0.1295(3) 0.6633(4) 1.57(8) 1. 0
#End of TTdata_4362-ICSD