
#(C) 2019 by FIZ Karlsruhe - Leibniz Institute for Information Infrastructure.  All rights reserved.
data_43909-ICSD
_database_code_ICSD 43909
_audit_creation_date 2000-07-15
_audit_update_record 2006-04-01
_chemical_name_systematic 'Sodium antimony sulfide - alpha'
_chemical_formula_structural 'Na Sb S2'
_chemical_formula_sum 'Na1 S2 Sb1'
_chemical_name_structure_type KFeS2
_exptl_crystal_density_diffrn 3.62
_publ_section_title 'Crystal structure of alpha-Na Sb S2'
loop_
_citation_id
_citation_journal_full
_citation_year
_citation_journal_volume
_citation_page_first
_citation_page_last
_citation_journal_id_ASTM
primary 'Zhurnal Strukturnoi Khimii' 1979 20 148 152 ZSTKAI
loop_
_publ_author_name
'Kanishcheva, A.S.'
'Kuznetsova, V.G.'
'Batog, V.N.'
_cell_length_a 8.237(2)
_cell_length_b 8.247(2)
_cell_length_c 6.833(1)
_cell_angle_alpha 90.
_cell_angle_beta 124.29(2)
_cell_angle_gamma 90.
_cell_volume 383.5
_cell_formula_units_Z 4
_symmetry_space_group_name_H-M 'C 1 2/c 1'
_symmetry_Int_Tables_number 15
_refine_ls_R_factor_all 0.048
loop_
_symmetry_equiv_pos_site_id
_symmetry_equiv_pos_as_xyz
1 'x, -y, z+1/2'
2 '-x, -y, -z'
3 '-x, y, -z+1/2'
4 'x, y, z'
5 'x+1/2, -y+1/2, z+1/2'
6 '-x+1/2, -y+1/2, -z'
7 '-x+1/2, y+1/2, -z+1/2'
8 'x+1/2, y+1/2, z'
loop_
_atom_type_symbol
_atom_type_oxidation_number
Sb3+ 3
S2- -2
Na1+ 1
loop_
_atom_site_label
_atom_site_type_symbol
_atom_site_symmetry_multiplicity
_atom_site_Wyckoff_symbol
_atom_site_fract_x
_atom_site_fract_y
_atom_site_fract_z
_atom_site_B_iso_or_equiv
_atom_site_occupancy
_atom_site_attached_hydrogens
Sb1 Sb3+ 4 e 0.5 0.3972(1) 0.25 1.27 1. 0
S1 S2- 8 f 0.2206(2) 0.0886(2) 0.2403(2) 1.13 1. 0
Na1 Na1+ 4 e 0.5 0.1327(3) 0.75 1.61 1. 0
#End of TTdata_43909-ICSD