
#(C) 2019 by FIZ Karlsruhe - Leibniz Institute for Information Infrastructure.  All rights reserved.
data_4488-ICSD
_database_code_ICSD 4488
_audit_creation_date 2019-02-01
_chemical_name_systematic 'Sodium ammonium decaoxo-trimolybdate hydrate'
_chemical_formula_structural 'Na (N H4) Mo3 O10 (H2 O)'
_chemical_formula_sum 'H6 Mo3 N1 Na1 O11'
_exptl_crystal_density_diffrn 3.51
_cell_measurement_temperature 293.
_publ_section_title 'The crystal structure of Na(NH4)Mo3O10*H2O'
loop_
_citation_id
_citation_journal_full
_citation_year
_citation_journal_volume
_citation_page_first
_citation_page_last
_citation_journal_id_ASTM
primary 'Powder Diffraction' 2017 32 140 147 PODIE2
loop_
_publ_author_name
'Reid, Joel W.'
'Kaduk, James A.'
'Olson, Jeremy A.'
_cell_length_a 13.54982(10)
_cell_length_b 7.61850(6)
_cell_length_c 9.30274(7)
_cell_angle_alpha 90.
_cell_angle_beta 90.
_cell_angle_gamma 90.
_cell_volume 960.3
_cell_formula_units_Z 4
_symmetry_space_group_name_H-M 'P n m a'
_symmetry_Int_Tables_number 62
_refine_ls_R_factor_all 0.0338
loop_
_symmetry_equiv_pos_site_id
_symmetry_equiv_pos_as_xyz
1 'x+1/2, y, -z+1/2'
2 'x, -y+1/2, z'
3 '-x+1/2, y+1/2, z+1/2'
4 '-x, -y, -z'
5 '-x+1/2, -y, z+1/2'
6 '-x, y+1/2, -z'
7 'x+1/2, -y+1/2, -z+1/2'
8 'x, y, z'
loop_
_atom_type_symbol
_atom_type_oxidation_number
Na1+ 1
N3- -3
H1+ 1
Mo6+ 6
O2- -2
H1+ 1
loop_
_atom_site_label
_atom_site_type_symbol
_atom_site_symmetry_multiplicity
_atom_site_Wyckoff_symbol
_atom_site_fract_x
_atom_site_fract_y
_atom_site_fract_z
_atom_site_B_iso_or_equiv
_atom_site_occupancy
_atom_site_attached_hydrogens
Na1 Na1+ 4 c 0.31119(23) 0.75 0.45758(32) 0.0151(11) 1. 0
N1 N3- 4 c 0.6055(5) 0.75 0.4763(6) 0.0232(19) 1. 0
H1 H1+ 4 c 0.66611 0.75 0.54046 0.0302(24) 1. 0
H2 H1+ 8 d 0.57141 0.63607 0.50322 0.0302(24) 1. 0
H3 H1+ 4 c 0.63973 0.75 0.37918 0.0302(24) 1. 0
Mo1 Mo6+ 4 c 0.59625(6) 0.25 0.16613(7) 0.00490(23) 1. 0
Mo2 Mo6+ 8 d 0.59877(4) 0.49695(7) 0.87033(5) 0.00551(16) 1. 0
O1 O2- 8 d 0.56115(19) 0.4882(4) 0.10820(34) 0.0049(4) 1. 0
O2 O2- 4 c 0.72071(31) 0.25 0.1483(5) 0.0049(4) 1. 0
O3 O2- 4 c 0.43316(30) 0.25 0.1308(6) 0.0049(4) 1. 0
O4 O2- 8 d 0.28070(20) 0.4711(4) 0.08712(29) 0.0049(4) 1. 0
O5 O2- 4 c 0.57482(31) 0.25 0.3476(5) 0.0049(4) 1. 0
O6 O2- 4 c 0.58526(34) 0.25 0.9212(5) 0.0049(4) 1. 0
O7 O2- 8 d 0.59836(22) 0.4569(4) 0.68788(29) 0.0049(4) 1. 0
O8 O2- 4 c 0.68052(29) 0.75 1.2048(5) 0.0049(4) 1. 0
H4 H1+ 8 d 0.64073 0.64794 1.17226 0.0063(5) 1. 0
#End of TTdata_4488-ICSD