
#(C) 2019 by FIZ Karlsruhe - Leibniz Institute for Information Infrastructure.  All rights reserved.
data_4618-ICSD
_database_code_ICSD 4618
_audit_creation_date 2019-02-01
_chemical_name_systematic 'Sodium ferro(III)titanate'
_chemical_formula_structural 'Na0.8 Fe0.8 Ti1.2 O4'
_chemical_formula_sum 'Fe0.8 Na0.8 O4 Ti1.2'
_chemical_name_structure_type CaV2O4-defect
_exptl_crystal_density_diffrn 3.95
_publ_section_title

;
Improving the sodium storage capacity of tunnel structured Nax Fex Ti2-x O4 (x
=1, 0.9 & 0.8) anode materials by tuning sodium deficiency
;
loop_
_citation_id
_citation_journal_full
_citation_year
_citation_journal_volume
_citation_page_first
_citation_page_last
_citation_journal_id_ASTM
primary 'Journal of Power Sources' 2017 366 115 122 JPSODZ
loop_
_publ_author_name
'Bhange, Deu S.'
'Ali, Ghulam'
'Kim, Ji-Young'
'Chung, Kyung Yoon'
'Nam, Kyung-Wan'
_cell_length_a 9.2514(1)
_cell_length_b 2.9639(1)
_cell_length_c 11.3314(2)
_cell_angle_alpha 90.
_cell_angle_beta 90.
_cell_angle_gamma 90.
_cell_volume 310.71
_cell_formula_units_Z 4
_symmetry_space_group_name_H-M 'P n m a'
_symmetry_Int_Tables_number 62
_refine_ls_R_factor_all 0.0851
loop_
_symmetry_equiv_pos_site_id
_symmetry_equiv_pos_as_xyz
1 'x+1/2, y, -z+1/2'
2 'x, -y+1/2, z'
3 '-x+1/2, y+1/2, z+1/2'
4 '-x, -y, -z'
5 '-x+1/2, -y, z+1/2'
6 '-x, y+1/2, -z'
7 'x+1/2, -y+1/2, -z+1/2'
8 'x, y, z'
loop_
_atom_type_symbol
_atom_type_oxidation_number
Na1+ 1
Fe3+ 3
Ti4+ 4
Fe3+ 3
Ti4+ 4
O2- -2
loop_
_atom_site_label
_atom_site_type_symbol
_atom_site_symmetry_multiplicity
_atom_site_Wyckoff_symbol
_atom_site_fract_x
_atom_site_fract_y
_atom_site_fract_z
_atom_site_B_iso_or_equiv
_atom_site_occupancy
_atom_site_attached_hydrogens
Na1 Na1+ 4 c 0.6046(7) 0.75 0.1039(6) 0.0831(2) 0.8 0
Fe1 Fe3+ 4 c -0.0190(2) 0.25 0.1198(2) 0.01 0.622(7) 0
Ti1 Ti4+ 4 c -0.0190(2) 0.25 0.1198(2) 0.01 0.378(7) 0
Fe2 Fe3+ 4 c 0.2692(2) 0.75 0.1604(2) 0.01 0.178(7) 0
Ti2 Ti4+ 4 c 0.2692(2) 0.75 0.1604(2) 0.01 0.822(7) 0
O1 O2- 4 c 0.1095(6) 0.75 0.0416(5) 0.014 1. 0
O2 O2- 4 c 0.3733(6) 0.75 0.3135(5) 0.014 1. 0
O3 O2- 4 c 0.3732(6) 0.25 0.0950(5) 0.014 1. 0
O4 O2- 4 c 0.1438(6) 0.25 0.2319(6) 0.014 1. 0
#End of TTdata_4618-ICSD