
#(C) 2019 by FIZ Karlsruhe - Leibniz Institute for Information Infrastructure.  All rights reserved.
data_4671-ICSD
_database_code_ICSD 4671
_audit_creation_date 2019-02-01
_chemical_name_systematic 'Trisodium samarium orthoborate'
_chemical_formula_structural 'Na3 Sm (B O3)2'
_chemical_formula_sum 'B2 Na3 O6 Sm1'
_chemical_name_structure_type Na3Y(BO3)2
_exptl_crystal_density_diffrn 3.81
_publ_section_title

;
Synthesis, crystal structure, and thermal stability of new borates Na3 RE B2
O6 (RE = Pr, Sm, Eu)
;
loop_
_citation_id
_citation_journal_full
_citation_year
_citation_journal_volume
_citation_page_first
_citation_page_last
_citation_journal_id_ASTM
primary 'Powder Diffraction' 2016 31 110 117 PODIE2
loop_
_publ_author_name
'Wang, Zhixun'
'Li, Hangkong'
'Cai, Gemei'
'Jin, Zhanpeng'
_cell_length_a 6.571(1)
_cell_length_b 8.779(6)
_cell_length_c 12.0399(8)
_cell_angle_alpha 90
_cell_angle_beta 122.16(2)
_cell_angle_gamma 90
_cell_volume 587.98
_cell_formula_units_Z 4
_symmetry_space_group_name_H-M 'P 1 21/c 1'
_symmetry_Int_Tables_number 14
_refine_ls_R_factor_all 0.0923
loop_
_symmetry_equiv_pos_site_id
_symmetry_equiv_pos_as_xyz
1 'x, -y+1/2, z+1/2'
2 '-x, -y, -z'
3 '-x, y+1/2, -z+1/2'
4 'x, y, z'
loop_
_atom_type_symbol
_atom_type_oxidation_number
Sm3+ 3
Na1+ 1
B3+ 3
O2- -2
loop_
_atom_site_label
_atom_site_type_symbol
_atom_site_symmetry_multiplicity
_atom_site_Wyckoff_symbol
_atom_site_fract_x
_atom_site_fract_y
_atom_site_fract_z
_atom_site_B_iso_or_equiv
_atom_site_occupancy
_atom_site_attached_hydrogens
Sm1 Sm3+ 4 e 0.0127(1) 0.3838(2) 0.3535(1) 0.004(1) 1. 0
Na1 Na1+ 4 e 0.1740(2) 0.2675(1) 0.1535(1) 0.004(1) 1. 0
Na2 Na1+ 4 e 0.5817(2) 0.1666(1) 0.1018(2) 0.016(2) 1. 0
Na3 Na1+ 4 e 0.3866(2) 0.5599(1) 0.1032(2) 0.016(2) 1. 0
B1 B3+ 4 e 0.587(1) 0.410(1) 0.358(1) 0.01(1) 1. 0
B2 B3+ 4 e 0.115(1) 0.081(1) 0.370(1) 0.01(1) 1. 0
O1 O2- 4 e 0.1636(1) 0.1532(1) 0.4755(2) 0.11(1) 1. 0
O2 O2- 4 e 0.0345(1) 0.13605(2) 0.2438(1) 0.11(2) 1. 0
O3 O2- 4 e 0.8108(1) 0.429(1) 0.1163(2) 0.12(1) 1. 0
O4 O2- 4 e 0.6253(2) 0.2893(1) 0.3011(1) 0.04(1) 1. 0
O5 O2- 4 e 0.3789(2) 0.3972(1) 0.3608(1) 0.04(1) 1. 0
O6 O2- 4 e 0.2536(1) 0.0217(3) 0.0874(1) 0.04(2) 1. 0
#End of TTdata_4671-ICSD