
#(C) 2019 by FIZ Karlsruhe - Leibniz Institute for Information Infrastructure.  All rights reserved.
data_47177-ICSD
_database_code_ICSD 47177
_audit_creation_date 1985-06-13
_audit_update_record 2014-08-01
_chemical_name_systematic 'Potassium sodium titanate'
_chemical_formula_structural 'K Na Ti O3'
_chemical_formula_sum 'K1 Na1 O3 Ti1'
_chemical_name_structure_type KNaTiO3
_exptl_crystal_density_diffrn 3.04
_publ_section_title 'Ein neues einfaches Ttitanat: K Na Ti O3.'
loop_
_citation_id
_citation_journal_full
_citation_year
_citation_journal_volume
_citation_page_first
_citation_page_last
_citation_journal_id_ASTM
primary 'Zeitschrift fuer Anorganische und Allgemeine Chemie (1950) (DE)' 1985
523 54 62 ZAACAB
loop_
_publ_author_name
'Werthmann, R.'
'Hoppe, R.'
_cell_length_a 5.7960(16)
_cell_length_b 10.9608(20)
_cell_length_c 5.4735(15)
_cell_angle_alpha 90.
_cell_angle_beta 97.36(2)
_cell_angle_gamma 90.
_cell_volume 344.86
_cell_formula_units_Z 4
_symmetry_space_group_name_H-M 'C 1 2/c 1'
_symmetry_Int_Tables_number 15
_refine_ls_R_factor_all 0.0515
loop_
_symmetry_equiv_pos_site_id
_symmetry_equiv_pos_as_xyz
1 'x, -y, z+1/2'
2 '-x, -y, -z'
3 '-x, y, -z+1/2'
4 'x, y, z'
5 'x+1/2, -y+1/2, z+1/2'
6 '-x+1/2, -y+1/2, -z'
7 '-x+1/2, y+1/2, -z+1/2'
8 'x+1/2, y+1/2, z'
loop_
_atom_type_symbol
_atom_type_oxidation_number
Ti4+ 4
K1+ 1
Na1+ 1
O2- -2
loop_
_atom_site_label
_atom_site_type_symbol
_atom_site_symmetry_multiplicity
_atom_site_Wyckoff_symbol
_atom_site_fract_x
_atom_site_fract_y
_atom_site_fract_z
_atom_site_B_iso_or_equiv
_atom_site_occupancy
_atom_site_attached_hydrogens
Ti1 Ti4+ 4 e 0 0.9473(1) 0.25 . 1. 0
K1 K1+ 4 e 0 0.2636(1) 0.25 . 1. 0
Na1 Na1+ 4 e 0 0.5775(2) 0.25 . 1. 0
O1 O2- 4 e 0 0.7870(4) 0.25 . 1. 0
O2 O2- 8 f 0.2858(5) 0.5250(3) 0.0043(5) . 1. 0
loop_
_atom_site_aniso_label
_atom_site_aniso_type_symbol
_atom_site_aniso_U_11
_atom_site_aniso_U_22
_atom_site_aniso_U_33
_atom_site_aniso_U_12
_atom_site_aniso_U_13
_atom_site_aniso_U_23
Ti1 Ti4+ 0.0038(5) 0.0022(4) 0.0010(5) 0 0.0012(4) 0
K1 K1+ 0.0240(8) 0.0206(7) 0.0180(7) 0 0.0053(6) 0
Na1 Na1+ 0.0152(12) 0.0110(11) 0.0156(12) 0 0.0043(10) 0
O1 O2- 0.0223(23) 0.0093(19) 0.0146(22) 0 0.0053(19) 0
O2 O2- 0.0092(14) 0.0204(16) 0.0081(14) 0.0015(10) 0.0025(11) 0.0007(12)
#End of TTdata_47177-ICSD