
#(C) 2019 by FIZ Karlsruhe - Leibniz Institute for Information Infrastructure.  All rights reserved.
data_473-ICSD
_database_code_ICSD 473
_audit_creation_date 1980-01-01
_audit_update_record 2011-08-01
_chemical_name_systematic 'Trisodium dizirconium disilicophosphate(V)'
_chemical_formula_structural 'Na3 Zr2 (Si2 P O12)'
_chemical_formula_sum 'Na3 O12 P1 Si2 Zr2'
_chemical_name_structure_type 'Nasicon low'
_exptl_crystal_density_diffrn 3.27
_publ_section_title
'Crystal structures and crystal chemistry in the system Na1+x Zr2 Six P3-x O12'
loop_
_citation_id
_citation_journal_full
_citation_year
_citation_journal_volume
_citation_page_first
_citation_page_last
_citation_journal_id_ASTM
primary 'Materials Research Bulletin' 1976 11 173 182 MRBUAC
loop_
_publ_author_name
'Hong, H.'
_cell_length_a 15.586(9)
_cell_length_b 9.029(4)
_cell_length_c 9.205(5)
_cell_angle_alpha 90.
_cell_angle_beta 123.70(5)
_cell_angle_gamma 90.
_cell_volume 1077.7
_cell_formula_units_Z 4
_symmetry_space_group_name_H-M 'C 1 2/c 1'
_symmetry_Int_Tables_number 15
loop_
_symmetry_equiv_pos_site_id
_symmetry_equiv_pos_as_xyz
1 'x, -y, z+1/2'
2 '-x, -y, -z'
3 '-x, y, -z+1/2'
4 'x, y, z'
5 'x+1/2, -y+1/2, z+1/2'
6 '-x+1/2, -y+1/2, -z'
7 '-x+1/2, y+1/2, -z+1/2'
8 'x+1/2, y+1/2, z'
loop_
_atom_type_symbol
_atom_type_oxidation_number
Na1+ 1
Zr4+ 4
P5+ 5
Si4+ 4
P5+ 5
Si4+ 4
O2- -2
Na1+ 1
loop_
_atom_site_label
_atom_site_type_symbol
_atom_site_symmetry_multiplicity
_atom_site_Wyckoff_symbol
_atom_site_fract_x
_atom_site_fract_y
_atom_site_fract_z
_atom_site_B_iso_or_equiv
_atom_site_occupancy
_atom_site_attached_hydrogens
Na1 Na1+ 4 d 0.25 0.25 0.5 . 1. 0
Zr1 Zr4+ 8 f 0.104(1) 0.2498(2) 0.0629(2) . 1. 0
P1 P5+ 4 e 0 0.0412(8) 0.25 . 0.333 0
Si1 Si4+ 4 e 0 0.0412(8) 0.25 . 0.667 0
P2 P5+ 8 f 0.354(3) 0.1051(6) 0.2493(6) . 0.333 0
Si2 Si4+ 8 f 0.354(3) 0.1051(6) 0.2493(6) . 0.667 0
O1 O2- 8 f 0.149(1) 0.43(1) 0.234(1) . 1. 0
O2 O2- 8 f 0.438(1) 0.44(1) 0.088(1) . 1. 0
O3 O2- 8 f 0.259(1) 0.172(1) 0.237(1) . 1. 0
O4 O2- 8 f 0.353(1) 0.144(1) 0.085(1) . 1. 0
O5 O2- 8 f 0.453(1) 0.169(1) 0.412(1) . 1. 0
O6 O2- 8 f 0.078(1) 0.139(1) 0.240(1) . 1. 0
Na2 Na1+ 4 e 0.5 0.95 0.25 . 1. 0
Na3 Na1+ 8 f 0.83 0.1 0.7 . 0.5 0
loop_
_atom_site_aniso_label
_atom_site_aniso_type_symbol
_atom_site_aniso_beta_11
_atom_site_aniso_beta_22
_atom_site_aniso_beta_33
_atom_site_aniso_beta_12
_atom_site_aniso_beta_13
_atom_site_aniso_beta_23
Na1 Na1+ 0.006(1) 0.017(2) 0.004(3) 0 0 0
Zr1 Zr4+ 0.0009(1) 0.0019(2) 0.0015(2) 0.0000(1) 0.0002(1) 0.0000(1)
P1 P5+ 0.0017(5) 0.002(1) 0.004(1) 0 0.0016(7) 0
Si1 Si4+ 0.0017(5) 0.002(1) 0.004(1) 0 0.0016(7) 0
P2 P5+ 0.0015(3) 0.0022(8) 0.004(1) 0.0000(3) 0.0011(5) 0.0000(8)
Si2 Si4+ 0.0015(3) 0.0022(8) 0.004(1) 0.0000(3) 0.0011(5) 0.0000(8)
O1 O2- 0.003(1) 0.000(2) 0.004(2) 0.000(1) 0.000(1) 0.001(2)
O2 O2- 0.002(1) 0.004(2) 0.004(3) 0.000(1) 0.000(1) 0.001(2)
O3 O2- 0.0013(9) 0.003(2) 0.004(2) 0.000(1) 0.001(1) 0.003(2)
O4 O2- 0.003(1) 0.005(2) 0.004(3) 0.001(1) 0.002(1) 0.000(2)
O5 O2- 0.001(1) 0.005(2) 0.008(3) 0.002(1) 0.000(1) 0.000(2)
O6 O2- 0.0014(9) 0.001(2) 0.005(2) 0.000(1) 0.002(1) 0.002(2)
#End of TTdata_473-ICSD