
#(C) 2019 by FIZ Karlsruhe - Leibniz Institute for Information Infrastructure.  All rights reserved.
data_48165-ICSD
_database_code_ICSD 48165
_audit_creation_date 1984-12-31
_audit_update_record 2012-08-01
_chemical_name_systematic 'Sodium pentafluorooxoniobate'
_chemical_formula_structural 'Na2 (Nb F5 O)'
_chemical_formula_sum 'F5 Na2 Nb1 O1'
_exptl_crystal_density_diffrn 3.25
_publ_section_title
'The crystal Structure of Sodium Pentafluorooxoniobate(-2), Na2 (Nb F5 O)'
loop_
_citation_id
_citation_journal_full
_citation_year
_citation_journal_volume
_citation_page_first
_citation_page_last
_citation_journal_id_ASTM
primary 'Acta Chemica Scandinavica, Series A: Physical and Inorganic Chemistry'
1984 38 603 607 ACAPCT
loop_
_publ_author_name
'Stomberg, R.'
_cell_length_a 5.089(1)
_cell_length_b 5.512(1)
_cell_length_c 18.207(4)
_cell_angle_alpha 90.
_cell_angle_beta 90.
_cell_angle_gamma 90.
_cell_volume 510.72
_cell_formula_units_Z 4
_symmetry_space_group_name_H-M 'P c n b'
_symmetry_Int_Tables_number 60
_refine_ls_R_factor_all 0.027
loop_
_symmetry_equiv_pos_site_id
_symmetry_equiv_pos_as_xyz
1 'x, y+1/2, -z'
2 '-x+1/2, y, z+1/2'
3 'x+1/2, -y+1/2, z+1/2'
4 '-x, -y, -z'
5 '-x, -y+1/2, z'
6 'x+1/2, -y, -z+1/2'
7 '-x+1/2, y+1/2, -z+1/2'
8 'x, y, z'
loop_
_atom_type_symbol
_atom_type_oxidation_number
Nb5+ 5
Na1+ 1
O2- -2
F1- -1
loop_
_atom_site_label
_atom_site_type_symbol
_atom_site_symmetry_multiplicity
_atom_site_Wyckoff_symbol
_atom_site_fract_x
_atom_site_fract_y
_atom_site_fract_z
_atom_site_B_iso_or_equiv
_atom_site_occupancy
_atom_site_attached_hydrogens
Nb1 Nb5+ 8 d 0.02054(9) 0.24279(20) 0.11059(2) . 0.5 0
Na1 Na1+ 4 c 0 0.25 0.44385(11) . 1. 0
Na2 Na1+ 4 c 0.5 0.25 0.27205(10) . 1. 0
O1 O2- 8 d 0.2337(4) 0.1158(4) 0.04451(12) . 0.5 0
F1 F1- 8 d 0.2337(4) 0.1158(4) 0.04451(12) . 0.5 0
F2 F1- 8 d 0.2080(5) 0.0999(4) 0.19357(12) . 1. 0
F3 F1- 8 d 0.2099(4) 0.5415(4) 0.12482(11) . 1. 0
loop_
_atom_site_aniso_label
_atom_site_aniso_type_symbol
_atom_site_aniso_U_11
_atom_site_aniso_U_22
_atom_site_aniso_U_33
_atom_site_aniso_U_12
_atom_site_aniso_U_13
_atom_site_aniso_U_23
Nb1 Nb5+ 0.0098(7) 0.0136(2) 0.0122(1) -.001(1) 0.0000(2) 0.0000(1)
Na1 Na1+ 0.0200(7) 0.0210(7) 0.0243(7) 0.003 0 0
Na2 Na1+ 0.0238(7) 0.0190(7) 0.0222(7) -.005(1) 0 0
O1 O2- 0.0188(8) 0.0232(9) 0.0212(8) 0.003(1) 0.0035(10) -.002(1)
F1 F1- 0.0188(8) 0.0232(9) 0.0212(8) 0.003(1) 0.0035(10) -.002(1)
F2 F1- 0.0266(9) 0.0252(9) 0.0249(8) -.005(1) 0.013(1) 0.009(1)
F3 F1- 0.0232(8) 0.0168(7) 0.0243(8) -.008(1) 0.004(1) -.0030(5)
#End of TTdata_48165-ICSD