
#(C) 2019 by FIZ Karlsruhe - Leibniz Institute for Information Infrastructure.  All rights reserved.
data_48212-ICSD
_database_code_ICSD 48212
_audit_creation_date 1986-12-03
_audit_update_record 2008-02-01
_chemical_name_systematic 'Sodium rubidium trimolybdate'
_chemical_formula_structural 'Na Rb (Mo3 O10)'
_chemical_formula_sum 'Mo3 Na1 O10 Rb1'
_chemical_name_structure_type NaRbMo3O10
_exptl_crystal_density_diffrn 4.15
_publ_section_title 'Die kristallinen Phasen der Alkalitrimolybdate'
loop_
_citation_id
_citation_journal_full
_citation_year
_citation_journal_volume
_citation_page_first
_citation_page_last
_citation_journal_id_ASTM
primary

;
Zeitschrift fuer Naturforschung, Teil B: Anorganische Chemie, Organische
Chemie
; 1985 40 1139 1148 ZNBAD2
loop_
_publ_author_name
'Foerster, A.'
'Kreusler, H.U.'
'Fuchs, J.'
_cell_length_a 7.589(3)
_cell_length_b 7.579(5)
_cell_length_c 15.489(3)
_cell_angle_alpha 90.
_cell_angle_beta 90.
_cell_angle_gamma 90.
_cell_volume 890.88
_cell_formula_units_Z 4
_symmetry_space_group_name_H-M 'P n m a'
_symmetry_Int_Tables_number 62
_refine_ls_R_factor_all 0.063
loop_
_symmetry_equiv_pos_site_id
_symmetry_equiv_pos_as_xyz
1 'x+1/2, y, -z+1/2'
2 'x, -y+1/2, z'
3 '-x+1/2, y+1/2, z+1/2'
4 '-x, -y, -z'
5 '-x+1/2, -y, z+1/2'
6 '-x, y+1/2, -z'
7 'x+1/2, -y+1/2, -z+1/2'
8 'x, y, z'
loop_
_atom_type_symbol
_atom_type_oxidation_number
Na1+ 1
Rb1+ 1
Mo6+ 6
O2- -2
loop_
_atom_site_label
_atom_site_type_symbol
_atom_site_symmetry_multiplicity
_atom_site_Wyckoff_symbol
_atom_site_fract_x
_atom_site_fract_y
_atom_site_fract_z
_atom_site_B_iso_or_equiv
_atom_site_occupancy
_atom_site_attached_hydrogens
Na1 Na1+ 4 c 0.940(2) 0.25 0.775(1) 0.018(8) 1. 0
Rb1 Rb1+ 4 c 0.3547(7) 0.25 0.3531(3) 0.026(2) 1. 0
Mo1 Mo6+ 4 c 0.2600(5) 0.25 -.0562(2) 0.010(1) 1. 0
Mo2 Mo6+ 8 d 0.3910(3) 0.4996(3) 0.1020(1) 0.010(1) 1. 0
O1 O2- 4 c 0.558(4) 0.25 -.090(2) 0.019(6) 1. 0
O2 O2- 4 c 0.387(3) 0.25 0.071(2) 0.007(5) 1. 0
O3 O2- 8 d 0.345(3) 0.012(3) -.036(1) 0.017(4) 1. 0
O4 O2- 8 d 0.174(3) 0.525(3) 0.130(1) 0.025(5) 1. 0
O5 O2- 8 d 0.493(3) 0.466(3) 0.198(1) 0.022(5) 1. 0
O6 O2- 4 c 0.059(4) 0.25 -.009(2) 0.023(7) 1. 0
O7 O2- 4 c 0.216(4) 0.25 -.170(2) 0.019(6) 1. 0
#End of TTdata_48212-ICSD