
#(C) 2019 by FIZ Karlsruhe - Leibniz Institute for Information Infrastructure.  All rights reserved.
data_49027-ICSD
_database_code_ICSD 49027
_audit_creation_date 1985-07-17
_audit_update_record 1990-05-28
_chemical_name_systematic 'Hexasodium dilithium ditungsten oxide'
_chemical_formula_structural 'Na6 Li2 (W2 O10)'
_chemical_formula_sum 'Li2 Na6 O10 W2'
_exptl_crystal_density_diffrn 4.92
_publ_section_title
'Ueber quaternaere Oxowolframate(VI) Na6 Li2 (W2 O10) ein Diwolframat'
loop_
_citation_id
_citation_journal_full
_citation_year
_citation_journal_volume
_citation_page_first
_citation_page_last
_citation_journal_id_ASTM
primary 'Zeitschrift fuer Anorganische und Allgemeine Chemie (1950) (DE)' 1985
522 11 22 ZAACAB
loop_
_publ_author_name
'Betz, T.'
'Hoppe, R.'
_cell_length_a 7.8466(11)
_cell_length_b 6.0253(7)
_cell_length_c 5.6381(11)
_cell_angle_alpha 106.784(14)
_cell_angle_beta 114.548(14)
_cell_angle_gamma 91.082(13)
_cell_volume 229.17
_cell_formula_units_Z 1
_symmetry_space_group_name_H-M 'P -1'
_symmetry_Int_Tables_number 2
_refine_ls_R_factor_all 0.0832
loop_
_symmetry_equiv_pos_site_id
_symmetry_equiv_pos_as_xyz
1 '-x, -y, -z'
2 'x, y, z'
loop_
_atom_type_symbol
_atom_type_oxidation_number
W6+ 6
Na1+ 1
O2- -2
Li1+ 1
loop_
_atom_site_label
_atom_site_type_symbol
_atom_site_symmetry_multiplicity
_atom_site_Wyckoff_symbol
_atom_site_fract_x
_atom_site_fract_y
_atom_site_fract_z
_atom_site_B_iso_or_equiv
_atom_site_occupancy
_atom_site_attached_hydrogens
W1 W6+ 2 i 0.2064(1) 0.1608(1) 0.1058(1) . 1. 0
Na1 Na1+ 2 i 0.9874(13) 0.2495(15) 0.5056(15) . 1. 0
Na2 Na1+ 2 i 0.6034(13) 0.9557(15) 0.3066(18) . 1. 0
Na3 Na1+ 2 i 0.6139(14) 0.4366(17) 0.2764(22) . 1. 0
O1 O2- 2 i 0.2713(17) 0.3284(22) 0.9196(22) . 1. 0
O2 O2- 2 i 0.4278(18) 0.2304(22) 0.4154(22) . 1. 0
O3 O2- 2 i 0.0773(18) 0.9533(21) 0.2281(22) . 1. 0
O4 O2- 2 i 0.7284(17) 0.1188(21) 0.0782(24) . 1. 0
O5 O2- 2 i 0.8959(18) 0.5814(22) 0.7385(22) . 1. 0
Li1 Li1+ 2 i 0.8316(32) 0.3485(34) 0.9536(34) . 1. 0
loop_
_atom_site_aniso_label
_atom_site_aniso_type_symbol
_atom_site_aniso_U_11
_atom_site_aniso_U_22
_atom_site_aniso_U_33
_atom_site_aniso_U_12
_atom_site_aniso_U_13
_atom_site_aniso_U_23
W1 W6+ 0.0097(3) 0.0105(3) 0.0062(3) 0.0032(2) 0.0018(2) 0.0031(2)
Na1 Na1+ 0.0195(27) 0.0253(28) 0.0067(23) 0.0098(24) 0.0017(21) 0.0041(22)
Na2 Na1+ 0.0250(28) 0.0213(27) 0.0336(28) 0.0080(24) 0.0202(23) 0.0206(23)
Na3 Na1+ 0.0210(28) 0.0239(29) 0.0519(32) -.0113(26) 0.0231(25) 0.0062(27)
O1 O2- 0.0081(29) 0.0242(32) 0.0164(30) 0.0021(28) 0.0087(25) 0.0143(27)
O2 O2- 0.0106(31) 0.0238(33) 0.0040(29) 0.0051(30) -.0057(27) 0.0014(28)
O3 O2- 0.0117(31) 0.0176(31) 0.0096(30) 0.0071(29) -.0003(27) 0.0030(28)
O4 O2- 0.0050(29) 0.0123(31) 0.0211(32) -.0024(27) 0.0041(27) 0.0023(28)
O5 O2- 0.0192(31) 0.0219(32) 0.0116(29) 0.0115(29) 0.0092(27) 0.0086(27)
Li1 Li1+ 0.0295(37) 0.0221(37) 0.0164(36) 0.0020(37) 0.0152(35) 0.0052(36)
#End of TTdata_49027-ICSD