
#(C) 2019 by FIZ Karlsruhe - Leibniz Institute for Information Infrastructure.  All rights reserved.
data_49679-ICSD
_database_code_ICSD 49679
_audit_creation_date 1985-05-02
_audit_update_record 2015-02-01
_chemical_name_systematic 'Sodium thallium oxide'
_chemical_formula_structural 'Na Tl O'
_chemical_formula_sum 'Na1 O1 Tl1'
_exptl_crystal_density_diffrn 6.87
_publ_section_title
'Neues ueber ternaere Interalkalimetalloxide und Alkalithallium(I)-oxide'
loop_
_citation_id
_citation_journal_full
_citation_year
_citation_journal_volume
_citation_page_first
_citation_page_last
_citation_journal_id_ASTM
primary

;
Zeitschrift fuer Naturforschung, Teil B: Anorganische Chemie, Organische
Chemie
; 1985 40 122 123 ZNBAD2
loop_
_publ_author_name
'Sabrowsky, H.'
'Mertens, P.'
'Doenhoff, F.O.'
_cell_length_a 3.436(4)
_cell_length_b 3.436(4)
_cell_length_c 11.51(5)
_cell_angle_alpha 90.
_cell_angle_beta 90.
_cell_angle_gamma 120.
_cell_volume 117.68
_cell_formula_units_Z 2
_symmetry_space_group_name_H-M 'P 63/m'
_symmetry_Int_Tables_number 176
loop_
_symmetry_equiv_pos_site_id
_symmetry_equiv_pos_as_xyz
1 '-x+y, -x, -z+1/2'
2 '-y, x-y, -z+1/2'
3 'x, y, -z+1/2'
4 'x-y, x, -z'
5 'y, -x+y, -z'
6 '-x, -y, -z'
7 'x-y, x, z+1/2'
8 'y, -x+y, z+1/2'
9 '-x, -y, z+1/2'
10 '-x+y, -x, z'
11 '-y, x-y, z'
12 'x, y, z'
loop_
_atom_type_symbol
_atom_type_oxidation_number
Tl1+ 1
Na1+ 1
O2- -2
loop_
_atom_site_label
_atom_site_type_symbol
_atom_site_symmetry_multiplicity
_atom_site_Wyckoff_symbol
_atom_site_fract_x
_atom_site_fract_y
_atom_site_fract_z
_atom_site_B_iso_or_equiv
_atom_site_occupancy
_atom_site_attached_hydrogens
Tl1 Tl1+ 4 f 0.3333 0.6667 0.122(7) 0.968(2) 0.5 0
Na1 Na1+ 4 f 0.3333 0.6667 0.122(7) 0.699(2) 0.5 0
O1 O2- 2 b 0 0 0 1.433(1) 1. 0
#End of TTdata_49679-ICSD