
#(C) 2019 by FIZ Karlsruhe - Leibniz Institute for Information Infrastructure.  All rights reserved.
data_50179-ICSD
_database_code_ICSD 50179
_audit_creation_date 1999-01-19
_chemical_name_systematic 'Sodium nonapraseodymium disulfide hexakis(silicate)'
_chemical_formula_structural 'Na Pr9 S2 (Si O4)6'
_chemical_formula_sum 'Na1 O24 Pr9 S2 Si6'
_chemical_name_structure_type Apatite#-(HE,P63/m)
_exptl_crystal_density_diffrn 5.51
_publ_section_title
'Na Pr9 S2 (Si O4)6: Ein Sulfidsilicat des Praseodyms mit Bromapatitstruktur'
loop_
_citation_id
_citation_journal_full
_citation_year
_citation_journal_volume
_citation_page_first
_citation_page_last
_citation_journal_id_ASTM
primary 'Zeitschrift fuer Anorganische und Allgemeine Chemie (1950) (DE)' 1997
623 1345 1346 ZAACAB
loop_
_publ_author_name
'Sieke, C.'
'Schleid, T.'
_cell_length_a 9.8105(4)
_cell_length_b 9.8105(4)
_cell_length_c 6.8968(2)
_cell_angle_alpha 90.
_cell_angle_beta 90.
_cell_angle_gamma 120.
_cell_volume 574.86
_cell_formula_units_Z 1
_symmetry_space_group_name_H-M 'P 63/m'
_symmetry_Int_Tables_number 176
_refine_ls_R_factor_all 0.024
loop_
_symmetry_equiv_pos_site_id
_symmetry_equiv_pos_as_xyz
1 '-x+y, -x, -z+1/2'
2 '-y, x-y, -z+1/2'
3 'x, y, -z+1/2'
4 'x-y, x, -z'
5 'y, -x+y, -z'
6 '-x, -y, -z'
7 'x-y, x, z+1/2'
8 'y, -x+y, z+1/2'
9 '-x, -y, z+1/2'
10 '-x+y, -x, z'
11 '-y, x-y, z'
12 'x, y, z'
loop_
_atom_type_symbol
_atom_type_oxidation_number
Na1+ 1
Pr3+ 3
S2- -2
Si4+ 4
O2- -2
loop_
_atom_site_label
_atom_site_type_symbol
_atom_site_symmetry_multiplicity
_atom_site_Wyckoff_symbol
_atom_site_fract_x
_atom_site_fract_y
_atom_site_fract_z
_atom_site_B_iso_or_equiv
_atom_site_occupancy
_atom_site_attached_hydrogens
Na1 Na1+ 4 f 0.3333 0.6667 0.00205(7) 0.0165(1) 0.25 0
Pr1 Pr3+ 4 f 0.3333 0.6667 0.00205(7) 0.0165(1) 0.75 0
Pr2 Pr3+ 6 h 0.24741(3) 0.00029(3) 0.25 0.0134(1) 1. 0
S1 S2- 2 b 0 0 0 0.0190(3) 1. 0
Si1 Si4+ 6 h 0.4093(2) 0.3785(2) 0.25 0.0121(2) 1. 0
O1 O2- 6 h 0.3333(6) 0.4905(6) 0.25 0.0280(9) 1. 0
O2 O2- 6 h 0.6008(4) 0.4754(4) 0.25 0.0193(7) 1. 0
O3 O2- 12 i 0.3586(4) 0.2628(3) 0.0617(4) 0.0270(6) 1. 0
#End of TTdata_50179-ICSD