
#(C) 2019 by FIZ Karlsruhe - Leibniz Institute for Information Infrastructure.  All rights reserved.
data_50393-ICSD
_database_code_ICSD 50393
_audit_creation_date 1999-11-30
_chemical_name_systematic 'Thulium sodium titanate (0.5/0.5/1)'
_chemical_formula_structural '(Tm0.5 Na0.5) (Ti O3)'
_chemical_formula_sum 'Na0.5 O3 Ti1 Tm0.5'
_chemical_name_structure_type Perovskite-GdFeO3
_exptl_crystal_density_diffrn 5.81
_publ_section_title

;
Preparation and dielectric characterizations of the novel perovskite-type
oxides (Ln1/2 Na1/2) Ti O3 (Ln = Dy, Ho, Er, Tm, Yb, Lu)
;
loop_
_citation_id
_citation_journal_full
_citation_year
_citation_journal_volume
_citation_page_first
_citation_page_last
_citation_journal_id_ASTM
primary 'Solid State Ionics' 1998 108 123 128 SSIOD3
loop_
_publ_author_name
'Shan, Y.J.'
'Nakamura, T.'
'Inaguma, Y.'
'Itoh, M.'
_cell_length_a 5.4397(1)
_cell_length_b 7.5980(1)
_cell_length_c 5.3081(1)
_cell_angle_alpha 90.
_cell_angle_beta 90.
_cell_angle_gamma 90.
_cell_volume 219.39
_cell_formula_units_Z 4
_symmetry_space_group_name_H-M 'P n m a'
_symmetry_Int_Tables_number 62
_refine_ls_R_factor_all 0.0289
loop_
_symmetry_equiv_pos_site_id
_symmetry_equiv_pos_as_xyz
1 'x+1/2, y, -z+1/2'
2 'x, -y+1/2, z'
3 '-x+1/2, y+1/2, z+1/2'
4 '-x, -y, -z'
5 '-x+1/2, -y, z+1/2'
6 '-x, y+1/2, -z'
7 'x+1/2, -y+1/2, -z+1/2'
8 'x, y, z'
loop_
_atom_type_symbol
_atom_type_oxidation_number
Tm3+ 3
Na1+ 1
Ti4+ 4
O2- -2
loop_
_atom_site_label
_atom_site_type_symbol
_atom_site_symmetry_multiplicity
_atom_site_Wyckoff_symbol
_atom_site_fract_x
_atom_site_fract_y
_atom_site_fract_z
_atom_site_B_iso_or_equiv
_atom_site_occupancy
_atom_site_attached_hydrogens
Tm1 Tm3+ 4 c 0.4475(4) 0.25 0.0122(7) 0.66(7) 0.5 0
Na1 Na1+ 4 c 0.4475(4) 0.25 0.0122(7) 0.66(7) 0.5 0
Ti1 Ti4+ 4 a 0 0 0 0.4(1) 1. 0
O1 O2- 4 c 0.523(2) 0.25 0.580(3) 1.5(4) 1. 0
O2 O2- 8 d 0.208(2) 0.043(1) 0.289(2) 0.6(3) 1. 0
#End of TTdata_50393-ICSD