
#(C) 2019 by FIZ Karlsruhe - Leibniz Institute for Information Infrastructure.  All rights reserved.
data_50476-ICSD
_database_code_ICSD 50476
_audit_creation_date 1999-11-30
_chemical_name_systematic
'Sodium iron(III) hydrogenphosphate(V) bis(dihydrogenphosphate(V)) hydrate'
_chemical_formula_structural 'Na Fe (H P O4) (H2 P O4)2 (H2 O)'
_chemical_formula_sum 'H7 Fe1 Na1 O13 P3'
_exptl_crystal_density_diffrn 2.49
_publ_section_title

;
Preparation and crystal structure of sodium iron hydrogen phosphate, Na Fe (H
P O4) (H2 P O4)2.H2 O
;
loop_
_citation_id
_citation_journal_full
_citation_year
_citation_journal_volume
_citation_page_first
_citation_page_last
_citation_journal_id_ASTM
primary 'Zeitschrift fuer Anorganische und Allgemeine Chemie (1950) (DE)' 1998
624 1509 1513 ZAACAB
loop_
_publ_author_name
'Anisimova, N.'
'Ilyukhin, A.'
'Chudinova, N.'
_cell_length_a 8.7291(7)
_cell_length_b 12.4954(8)
_cell_length_c 18.9439(10)
_cell_angle_alpha 90.
_cell_angle_beta 90.
_cell_angle_gamma 90.
_cell_volume 2066.28
_cell_formula_units_Z 8
_symmetry_space_group_name_H-M 'P b c n'
_symmetry_Int_Tables_number 60
_refine_ls_R_factor_all 0.039
loop_
_symmetry_equiv_pos_site_id
_symmetry_equiv_pos_as_xyz
1 'x, -y, z+1/2'
2 '-x+1/2, y+1/2, z'
3 'x+1/2, y+1/2, -z+1/2'
4 '-x, -y, -z'
5 '-x, y, -z+1/2'
6 'x+1/2, -y+1/2, -z'
7 '-x+1/2, -y+1/2, z+1/2'
8 'x, y, z'
loop_
_atom_type_symbol
_atom_type_oxidation_number
Fe3+ 3
Na1+ 1
P5+ 5
O2- -2
H1+ 1
loop_
_atom_site_label
_atom_site_type_symbol
_atom_site_symmetry_multiplicity
_atom_site_Wyckoff_symbol
_atom_site_fract_x
_atom_site_fract_y
_atom_site_fract_z
_atom_site_B_iso_or_equiv
_atom_site_occupancy
_atom_site_attached_hydrogens
Fe1 Fe3+ 8 d 0.2517(2) 0.2471(1) 0.3756 0.0088(2) 1. 0
Na1 Na1+ 8 d 0.1925(4) 0.014(6) 0.7662(2) 0.040(1) 1. 0
P1 P5+ 8 d 0.0529(2) 0.2095(2) 0.5216(1) 0.0125(4) 1. 0
P2 P5+ 4 c 0.5 0.2096(3) 0.25 0.014(1) 1. 0
P3 P5+ 4 c 0 0.2892(3) 0.25 0.0120(9) 1. 0
P4 P5+ 8 d 0.1514(2) 0.4957(2) 0.4101(1) 0.0099(4) 1. 0
O1 O2- 8 d 0.0822(7) 0.2228(5) 0.4448(3) 0.016(2) 1. 0
O2 O2- 8 d -.1084(7) 0.2354(5) 0.5421(3) 0.017(2) 1. 0
O3 O2- 8 d 0.0850(8) 0.0930(5) 0.5450(3) 0.035(2) 1. 0
O4 O2- 8 d 0.1618(7) 0.2830(6) 0.5651(3) 0.034(2) 1. 0
O5 O2- 8 d 0.4169(7) 0.2762(5) 0.3041(3) 0.017(2) 1. 0
O6 O2- 8 d 0.6155(9) 0.1328(6) 0.2876(4) 0.026(2) 1. 0
O7 O2- 8 d 0.0930(7) 0.2237(5) 0.3000(3) 0.015(2) 1. 0
O8 O2- 8 d 0.1157(8) 0.3642(6) 0.2096(4) 0.021(2) 1. 0
O9 O2- 8 d -.0278(5) 0.4836(6) 0.4032(3) 0.021(2) 1. 0
O10 O2- 8 d 0.1932(5) 0.4964(7) 0.4872(2) 0.015(1) 1. 0
O11 O2- 8 d 0.2139(8) 0.4002(5) 0.3691(3) 0.017(2) 1. 0
O12 O2- 8 d 0.2008(8) 0.5934(5) 0.3699(3) 0.018(2) 1. 0
O13 O2- 8 d 0.0467(7) -.0220(4) 0.6695(3) 0.025(2) 1. 0
H1 H1+ 8 d 0.1692 0.065 0.5228 0.05(2) 1. 0
H2 H1+ 8 d 0.2457 0.2946 0.5452 0.05(2) 1. 0
H3 H1+ 8 d 0.6138 0.1541 0.3397 0.05(2) 1. 0
H4 H1+ 8 d 0.0733 0.4019 0.1639 0.05(2) 1. 0
H5 H1+ 8 d -.0731 0.502 0.4399 0.05(2) 1. 0
H6 H1+ 8 d 0.0754 0 0.629 0.05(2) 1. 0
H7 H1+ 8 d 0.047 -.102 0.6674 0.05(2) 1. 0
#End of TTdata_50476-ICSD