
#(C) 2019 by FIZ Karlsruhe - Leibniz Institute for Information Infrastructure.  All rights reserved.
data_50667-ICSD
_database_code_ICSD 50667
_audit_creation_date 2000-07-15
_chemical_name_systematic 'Sodium vanadium oxide (8/14/35)'
_chemical_formula_structural 'Na9 V14 O35'
_chemical_formula_sum 'Na9 O35 V14'
_exptl_crystal_density_diffrn 3.27
_publ_section_title

;
Crystal structure and magnetic properties of Na9 V14 O35: sodium-vanadium
bronze eta-Na(x) V2 O5
;
loop_
_citation_id
_citation_journal_full
_citation_year
_citation_journal_volume
_citation_page_first
_citation_page_last
_citation_journal_id_ASTM
primary 'Journal of Solid State Chemistry' 1999 145 361 365 JSSCBI
loop_
_publ_author_name
'Isobe, M.'
'Ueda, Y.'
'Oka, Y.'
'Yao, T.'
_cell_length_a 15.209(8)
_cell_length_b 5.036(5)
_cell_length_c 20.786(6)
_cell_angle_alpha 90.
_cell_angle_beta 109.18(3)
_cell_angle_gamma 90.
_cell_volume 1503.68
_cell_formula_units_Z 2
_symmetry_space_group_name_H-M 'P 1 2/c 1'
_symmetry_Int_Tables_number 13
_refine_ls_R_factor_all 0.036
loop_
_symmetry_equiv_pos_site_id
_symmetry_equiv_pos_as_xyz
1 'x, -y, z+1/2'
2 '-x, -y, -z'
3 '-x, y, -z+1/2'
4 'x, y, z'
loop_
_atom_type_symbol
_atom_type_oxidation_number
V4+ 4.357
Na1+ 1
O2- -2
loop_
_atom_site_label
_atom_site_type_symbol
_atom_site_symmetry_multiplicity
_atom_site_Wyckoff_symbol
_atom_site_fract_x
_atom_site_fract_y
_atom_site_fract_z
_atom_site_B_iso_or_equiv
_atom_site_occupancy
_atom_site_attached_hydrogens
V1 V4+ 4 g 0.51232(4) 0.40093(12) 0.43570(2) 0.608(9) 1. 0
V2 V4+ 4 g 0.7244(4) 0.40048(12) 0.39381(2) 0.627(9) 1. 0
V3 V4+ 4 g 0.93649(4) 0.41358(12) 0.34980(2) 0.583(9) 1. 0
V4 V4+ 4 g 0.14464(4) 0.41964(12) 0.31797(2) 0.751(9) 1. 0
V5 V4+ 4 g 0.90708(4) 0.61662(13) 0.47777(3) 0.751(9) 1. 0
V6 V4+ 4 g 0.30126(4) 0.39856(12) 0.47716(2) 0.604(9) 1. 0
V7 V4+ 4 g 0.40307(4) 0.35629(11) 0.26866(2) 0.595(8) 1. 0
Na1 Na1+ 4 g 0.43267(10) 0.1268(3) 0.65415(7) 1.21(3) 1. 0
Na2 Na1+ 4 g 0.2183(1) 0.1169(3) 0.70023(7) 1.47(3) 1. 0
Na3 Na1+ 4 g 0.65342(11) 0.1255(8) 0.61784(7) 1.41(3) 1. 0
Na4 Na1+ 4 g 0.87103(10) 0.1418(3) 0.57538(7) 1.60(3) 1. 0
Na5 Na1+ 2 e 0 0.1002(5) 0.75 1.55(4) 1. 0
O1 O2- 4 g 0.58407(15) 0.4610(5) 0.53209(10) 0.70(4) 1. 0
O2 O2- 4 g 0.50071(17) 0.0845(5) 0.42066(12) 1.21(5) 1. 0
O3 O2- 4 g 0.37294(14) 0.4673(5) 0.57357(10) 0.76(4) 1. 0
O4 O2- 4 g 0.79812(15) 0.4697(5) 0.4905(1) 0.83(4) 1. 0
O5 O2- 4 g 0.29159(17) 0.0814(5) 0.46526(12) 1.21(5) 1. 0
O6 O2- 4 g 0.71330(17) 0.0838(5) 0.37860(12) 1.22(5) 1. 0
O7 O2- 4 g 0.16230(15) 0.4657(5) 0.61633(10) 0.73(4) 1. 0
O8 O2- 4 g 0.55327(16) 0.4521(5) 0.65945(10) 0.89(4) 1. 0
O9 O2- 2 f 0.5 0.1907(7) 0.25 0.88(6) 1. 0
O10 O2- 4 g 0.1408(2) 0.0919(5) 0.32027(12) 1.40(5) 1. 0
O11 O2- 4 g 0.93789(18) 0.0914(5) 0.34483(12) 1.33(5) 1. 0
O12 O2- 4 g 0.14505(18) 0.4667(5) 0.73876(10) 0.89(4) 1. 0
O13 O2- 4 g 0.34730(16) 0.4498(5) 0.69915(11) 0.96(4) 1. 0
O14 O2- 4 g 0.76361(15) 0.4572(5) 0.61472(10) 0.84(4) 1. 0
O15 O2- 4 g 0.33564(16) 0.1200(6) 0.28055(11) 1.20(5) 1. 0
O16 O2- 4 g 0.95713(16) 0.4598(5) 0.67227(11) 0.97(4) 1. 0
O17 O2- 4 g 0.09797(18) 0.0694(6) 0.51118(12) 1.34(5) 1. 0
O18 O2- 4 g 0.99172(15) 0.4680(5) 0.5573(1) 0.88(4) 1. 0
#End of TTdata_50667-ICSD