
#(C) 2019 by FIZ Karlsruhe - Leibniz Institute for Information Infrastructure.  All rights reserved.
data_50804-ICSD
_database_code_ICSD 50804
_audit_creation_date 2000-12-16
_chemical_name_systematic 'Sodium lanthanum sulfate(VI) (1.75/0.1/1)'
_chemical_formula_structural '(Na1.748 La0.102) (S O4)'
_chemical_formula_sum 'La0.102 Na1.748 O4 S1'
_chemical_name_structure_type Ca2SiO4(hP14)
_exptl_crystal_density_diffrn 2.82
_publ_section_title 'Defect-structure of ytterbium(III) doped Na2 S O4 phase I'
loop_
_citation_id
_citation_journal_full
_citation_year
_citation_journal_volume
_citation_page_first
_citation_page_last
_citation_journal_id_ASTM
primary 'Journal of Solid State Chemistry' 1999 145 309 316 JSSCBI
loop_
_publ_author_name
'Armbruster, T.'
'Basler, R.'
'Mikhail, P.'
'Hulliger, J.'
_cell_length_a 5.331(1)
_cell_length_b 5.331(1)
_cell_length_c 7.188(1)
_cell_angle_alpha 90.
_cell_angle_beta 90.
_cell_angle_gamma 120.
_cell_volume 176.91
_cell_formula_units_Z 2
_symmetry_space_group_name_H-M 'P 63/m m c'
_symmetry_Int_Tables_number 194
_refine_ls_R_factor_all 0.05
loop_
_symmetry_equiv_pos_site_id
_symmetry_equiv_pos_as_xyz
1 'x, x-y, -z+1/2'
2 '-x+y, y, -z+1/2'
3 '-y, -x, -z+1/2'
4 '-x+y, -x, -z+1/2'
5 '-y, x-y, -z+1/2'
6 'x, y, -z+1/2'
7 '-x, -x+y, z+1/2'
8 'x-y, -y, z+1/2'
9 'y, x, z+1/2'
10 'x-y, x, z+1/2'
11 'y, -x+y, z+1/2'
12 '-x, -y, z+1/2'
13 '-x, -x+y, -z'
14 'x-y, -y, -z'
15 'y, x, -z'
16 'x-y, x, -z'
17 'y, -x+y, -z'
18 '-x, -y, -z'
19 'x, x-y, z'
20 '-x+y, y, z'
21 '-y, -x, z'
22 '-x+y, -x, z'
23 '-y, x-y, z'
24 'x, y, z'
loop_
_atom_type_symbol
_atom_type_oxidation_number
S6+ 6
Na1+ 1
La3+ 3
Na1+ 1
O2- -2
loop_
_atom_site_label
_atom_site_type_symbol
_atom_site_symmetry_multiplicity
_atom_site_Wyckoff_symbol
_atom_site_fract_x
_atom_site_fract_y
_atom_site_fract_z
_atom_site_B_iso_or_equiv
_atom_site_occupancy
_atom_site_attached_hydrogens
S1 S6+ 2 c 0.3333 0.6667 0.25 0.024(1) 0.44(4) 0
S2 S6+ 4 f 0.3333 0.6667 0.201(3) 0.040(2) 0.28(2) 0
Na1 Na1+ 2 a 0 0 0 . 0.898(4) 0
La1 La3+ 2 a 0 0 0 . 0.102(4) 0
Na2 Na1+ 4 f 0.3333 0.6667 0.677(4) 0.032(4) 0.19(2) 0
Na3 Na1+ 2 d 0.3333 0.6667 0.75 0.039(4) 0.47(5) 0
O1 O2- 6 h 0.1831(5) 0.3662 0.25 . 0.8 0
O2 O2- 12 k 0.235(2) 0.47 0.093(3) . 0.18 0
O3 O2- 4 f 0.3333 0.6667 0.014(7) 0.158(20) 0.28 0
loop_
_atom_site_aniso_label
_atom_site_aniso_type_symbol
_atom_site_aniso_U_11
_atom_site_aniso_U_22
_atom_site_aniso_U_33
_atom_site_aniso_U_12
_atom_site_aniso_U_13
_atom_site_aniso_U_23
Na1 Na1+ 0.070(1) 0.070(1) 0.041(1) 0.035(1) 0 0
La1 La3+ 0.070(1) 0.070(1) 0.041(1) 0.035(1) 0 0
O1 O2- 0.078(3) 0.031(2) 0.113(7) 0.0155(2) 0 0
O2 O2- 0.133(13) 0.045(9) 0.075(11) 0.0225(9) -.016(11) -.032(11)
#End of TTdata_50804-ICSD