
#(C) 2019 by FIZ Karlsruhe - Leibniz Institute for Information Infrastructure.  All rights reserved.
data_50966-ICSD
_database_code_ICSD 50966
_audit_creation_date 2000-12-16
_chemical_name_systematic 'Sodium iron phosphate(V) (1/3.67/3)'
_chemical_formula_structural 'Na Fe3.67 (P O4)3'
_chemical_formula_sum 'Fe3.67 Na1 O12 P3'
_chemical_name_structure_type Alluaudite
_exptl_crystal_density_diffrn 3.86
_cell_measurement_temperature 298.
_publ_section_title

;
Hydrothermal synthesis, structure, and characterization of a mixed-valent
iron(II/III) phosphate, Na Fe3.67 (P O4)3: A new variation of the alluaudite
structure type
;
loop_
_citation_id
_citation_journal_full
_citation_year
_citation_journal_volume
_citation_page_first
_citation_page_last
_citation_journal_id_ASTM
primary 'Journal of Solid State Chemistry' 1998 139 152 160 JSSCBI
loop_
_publ_author_name
'Korzenski, M.B.'
'Schimek, G.L.'
'Kolis, J.W.'
'Long, G.-J.'
_cell_length_a 11.881(4)
_cell_length_b 12.564(3)
_cell_length_c 6.522(2)
_cell_angle_alpha 90.
_cell_angle_beta 115.09(2)
_cell_angle_gamma 90.
_cell_volume 881.7
_cell_formula_units_Z 4
_symmetry_space_group_name_H-M 'C 1 2/c 1'
_symmetry_Int_Tables_number 15
_refine_ls_R_factor_all 0.029
loop_
_symmetry_equiv_pos_site_id
_symmetry_equiv_pos_as_xyz
1 'x, -y, z+1/2'
2 '-x, -y, -z'
3 '-x, y, -z+1/2'
4 'x, y, z'
5 'x+1/2, -y+1/2, z+1/2'
6 '-x+1/2, -y+1/2, -z'
7 '-x+1/2, y+1/2, -z+1/2'
8 'x+1/2, y+1/2, z'
loop_
_atom_type_symbol
_atom_type_oxidation_number
Na1+ 1
P5+ 5
Fe2+ 2.18
O2- -2
loop_
_atom_site_label
_atom_site_type_symbol
_atom_site_symmetry_multiplicity
_atom_site_Wyckoff_symbol
_atom_site_fract_x
_atom_site_fract_y
_atom_site_fract_z
_atom_site_B_iso_or_equiv
_atom_site_occupancy
_atom_site_attached_hydrogens
Na1 Na1+ 4 e 0.5 0.4787(3) 0.75 . 1. 0
P1 P5+ 4 e 0.5 0.2074(1) 0.75 . 1. 0
P2 P5+ 8 f 0.7328(1) 0.3911(1) 0.6255(2) . 1. 0
Fe1 Fe2+ 8 f 0.7196(1) 0.3418(1) 0.1346(1) . 1. 0
Fe2 Fe2+ 4 e 0.5 0.2324(1) 0.25 . 1. 0
Fe3 Fe2+ 4 b 0 0.5 0.5 . 0.67 0
O1 O2- 8 f 0.5432(3) 0.2779(2) -.0375(4) . 1. 0
O2 O2- 8 f 0.6605(3) 0.3353(2) 0.3941(4) . 1. 0
O3 O2- 8 f 0.7787(3) 0.1769(2) 0.1874(4) . 1. 0
O4 O2- 8 f 0.6699(3) 0.5007(2) 0.1123(5) . 1. 0
O5 O2- 8 f 0.9011(3) 0.3690(3) 0.2564(5) . 1. 0
O6 O2- 8 f 0.3711(3) 0.0976(2) 0.1775(5) . 1. 0
loop_
_atom_site_aniso_label
_atom_site_aniso_type_symbol
_atom_site_aniso_U_11
_atom_site_aniso_U_22
_atom_site_aniso_U_33
_atom_site_aniso_U_12
_atom_site_aniso_U_13
_atom_site_aniso_U_23
Na1 Na1+ 0.020(1) 0.054(2) 0.016(1) 0 0.004(1) 0
P1 P5+ 0.009(1) 0.009(1) 0.008(1) 0 0.002(1) 0
P2 P5+ 0.009(1) 0.010(1) 0.010(1) 0.000(1) 0.003(1) -.002(1)
Fe1 Fe2+ 0.009(1) 0.012(1) 0.010(1) 0.001(1) 0.003(1) 0.000(1)
Fe2 Fe2+ 0.011(1) 0.012(1) 0.015(1) 0 0.006(1) 0
Fe3 Fe2+ 0.068(1) 0.0018(1) 0.023(1) 0.003(1) -.008(1) -.003(1)
O1 O2- 0.009(1) 0.017(1) 0.009(1) -.002(1) 0.002(1) -.003(1)
O2 O2- 0.020(2) 0.012(2) 0.012(1) -.005(1) 0.006(1) -.003(1)
O3 O2- 0.013(1) 0.020(2) 0.010(1) 0.001(1) 0.003(1) 0.002(1)
O4 O2- 0.0014(1) 0.012(1) 0.017(1) -.002(1) 0.006(1) 0.003(1)
O5 O2- 0.0019(2) 0.016(2) 0.023(2) 0.006(1) 0.006(1) -.003(1)
O6 O2- 0.012(2) 0.011(2) 0.033(2) 0.001(1) 0.010(1) 0.001(1)
#End of TTdata_50966-ICSD