
#(C) 2019 by FIZ Karlsruhe - Leibniz Institute for Information Infrastructure.  All rights reserved.
data_51029-ICSD
_database_code_ICSD 51029
_audit_creation_date 2001-07-16
_chemical_name_systematic 'Sodium lanthanum titanate (0.5/0.5/1)'
_chemical_formula_structural '(Na0.5 La0.5) (Ti O3)'
_chemical_formula_sum 'La0.5 Na0.5 O3 Ti1'
_chemical_name_structure_type Perovskite-GdFeO3
_exptl_crystal_density_diffrn 5.05
_publ_section_title
'A structural study of the perovskite series Na(1/2+x) La(1/2-3x) Th(2x) Ti O3'
loop_
_citation_id
_citation_journal_full
_citation_year
_citation_journal_volume
_citation_page_first
_citation_page_last
_citation_journal_id_ASTM
primary 'Journal of Solid State Chemistry' 1998 138 307 312 JSSCBI
loop_
_publ_author_name
'Mitchell, R.H.'
'Chakhmouradian, A.R.'
_cell_length_a 5.4736(4)
_cell_length_b 7.7540(4)
_cell_length_c 5.4785(4)
_cell_angle_alpha 90.
_cell_angle_beta 90.
_cell_angle_gamma 90.
_cell_volume 232.52
_cell_formula_units_Z 4
_symmetry_space_group_name_H-M 'P n m a'
_symmetry_Int_Tables_number 62
_refine_ls_R_factor_all 0.05
loop_
_symmetry_equiv_pos_site_id
_symmetry_equiv_pos_as_xyz
1 'x+1/2, y, -z+1/2'
2 'x, -y+1/2, z'
3 '-x+1/2, y+1/2, z+1/2'
4 '-x, -y, -z'
5 '-x+1/2, -y, z+1/2'
6 '-x, y+1/2, -z'
7 'x+1/2, -y+1/2, -z+1/2'
8 'x, y, z'
loop_
_atom_type_symbol
_atom_type_oxidation_number
Na1+ 1
La3+ 3
Ti4+ 4
O2- -2
loop_
_atom_site_label
_atom_site_type_symbol
_atom_site_symmetry_multiplicity
_atom_site_Wyckoff_symbol
_atom_site_fract_x
_atom_site_fract_y
_atom_site_fract_z
_atom_site_B_iso_or_equiv
_atom_site_occupancy
_atom_site_attached_hydrogens
Na1 Na1+ 4 c -.0022(8) 0.25 0.0031(8) 0.63(3) 0.5 0
La1 La3+ 4 c -.0022(8) 0.25 0.0031(8) 0.63(3) 0.5 0
Ti1 Ti4+ 4 b 0 0 0.5 0.50(3) 1. 0
O1 O2- 4 c 0.028(1) 0.25 0.548(1) 0.53(9) 1. 0
O2 O2- 8 d 0.241(1) 0.024(2) 0.258(2) 0.53(9) 1. 0
#End of TTdata_51029-ICSD