
#(C) 2019 by FIZ Karlsruhe - Leibniz Institute for Information Infrastructure.  All rights reserved.
data_51112-ICSD
_database_code_ICSD 51112
_audit_creation_date 2001-07-16
_audit_update_record 2012-08-01
_chemical_name_systematic 'Trisodium tetrathioniobate'
_chemical_formula_structural 'Na3 (Nb S4)'
_chemical_formula_sum 'Na3 Nb1 S4'
_chemical_name_structure_type Na3NbS4
_exptl_crystal_density_diffrn 2.49
_publ_section_title

;
Synthesis and crystal structure of ternary sulfides A3 M S4 with A= Na, Rb and
M= Nb, Ta
;
loop_
_citation_id
_citation_journal_full
_citation_year
_citation_journal_volume
_citation_page_first
_citation_page_last
_citation_journal_id_ASTM
primary 'Journal of Solid State Chemistry' 1998 139 404 411 JSSCBI
loop_
_publ_author_name
'Niewa, R.'
'Vajenine, G.V.'
'DiSalvo, F.J.'
_cell_length_a 27.3030(40)
_cell_length_b 28.46619(10)
_cell_length_c 7.9642(1)
_cell_angle_alpha 90.
_cell_angle_beta 90.
_cell_angle_gamma 90.
_cell_volume 6189.87
_cell_formula_units_Z 32
_symmetry_space_group_name_H-M 'F d d 2'
_symmetry_Int_Tables_number 43
_refine_ls_R_factor_all 0.038
loop_
_symmetry_equiv_pos_site_id
_symmetry_equiv_pos_as_xyz
1 'x+1/4, -y+1/4, z+1/4'
2 '-x+1/4, y+1/4, z+1/4'
3 '-x, -y, z'
4 'x, y, z'
5 'x+1/4, -y+3/4, z+3/4'
6 '-x+1/4, y+3/4, z+3/4'
7 '-x, -y+1/2, z+1/2'
8 'x, y+1/2, z+1/2'
9 'x+3/4, -y+1/4, z+3/4'
10 '-x+3/4, y+1/4, z+3/4'
11 '-x+1/2, -y, z+1/2'
12 'x+1/2, y, z+1/2'
13 'x+3/4, -y+3/4, z+1/4'
14 '-x+3/4, y+3/4, z+1/4'
15 '-x+1/2, -y+1/2, z'
16 'x+1/2, y+1/2, z'
loop_
_atom_type_symbol
_atom_type_oxidation_number
Nb5+ 5
S2- -2
Na1+ 1
loop_
_atom_site_label
_atom_site_type_symbol
_atom_site_symmetry_multiplicity
_atom_site_Wyckoff_symbol
_atom_site_fract_x
_atom_site_fract_y
_atom_site_fract_z
_atom_site_B_iso_or_equiv
_atom_site_occupancy
_atom_site_attached_hydrogens
Nb1 Nb5+ 16 b 0.24010(1) 0.13465(7) 0.44859(4) . 1. 0
Nb2 Nb5+ 16 b 0.12737(1) 0.24385(1) 0.95322(4) . 1. 0
S1 S2- 16 b 0.00085(4) 0.15611(4) 0.4400(2) . 1. 0
S2 S2- 16 b 0.06387(4) 0.09382(4) 0.0864(1) . 1. 0
S3 S2- 16 b 0.16596(4) 0.00226(4) 0.9463(2) . 1. 0
S4 S2- 16 b 0.09485(4) 0.06423(4) 0.6030(2) . 1. 0
S5 S2- 16 b 0.19527(4) 0.20005(4) 0.5052(7) . 1. 0
S6 S2- 16 b 0.19999(4) 0.09083(3) 0.2530(1) . 1. 0
S7 S2- 16 b 0.07734(4) 0.21199(4) 0.7540(1) . 1. 0
S8 S2- 16 b 0.19333(4) 0.19697(4) 0.0021(1) . 1. 0
Na1 Na1+ 16 b 0.15426(7) 0.11237(9) 0.8531(4) . 1. 0
Na2 Na1+ 16 b 0.11229(8) 0.15697(1) 0.3283(3) . 1. 0
Na3 Na1+ 16 b 0.12012(6) 0.02762(6) 0.2718(2) . 1. 0
Na4 Na1+ 16 b 0.24785(7) 0.00362(6) 0.2317(3) . 1. 0
Na5 Na1+ 16 b 0.02433(6) 0.12300(6) 0.7668(2) . 1. 0
Na6 Na1+ 8 a 0 0 0.0000(4) . 1. 0
Na7 Na1+ 8 a 0 0 0.5122(4) . 1. 0
loop_
_atom_site_aniso_label
_atom_site_aniso_type_symbol
_atom_site_aniso_U_11
_atom_site_aniso_U_22
_atom_site_aniso_U_33
_atom_site_aniso_U_12
_atom_site_aniso_U_13
_atom_site_aniso_U_23
Nb1 Nb5+ 0.0127(2) 0.0147(2) 0.0139(2) -.0003 -.0004(2) -.0005(2)
Nb2 Nb5+ 0.0133(2) 0.0176(2) 0.0144(2) -.0016(1) 0.0000(2) -.0007(2)
S1 S2- 0.0318(6) 0.0257(5) 0.0207(6) -.0016(4) -.0037(5) -.0053(5)
S2 S2- 0.0150(5) 0.0324(6) 0.0223(6) 0.0060(4) 0.0010(4) 0.0018(5)
S3 S2- 0.0236(5) 0.0341(6) 0.0188(6) -.0005(4) -.0032(5) -.0036(5)
S4 S2- 0.0274(6) 0.0210(6) 0.0237(6) 0.0064(4) 0.0008(5) -.0003(4)
S5 S2- 0.0228(5) 0.0212(5) 0.0232(6) 0.0054(4) -.0007(4) -.0040(4)
S6 S2- 0.0195(5) 0.0208(5) 0.0232(6) -.0045(4) -.0020(4) -.0040(4)
S7 S2- 0.0242(5) 0.0294(6) 0.0211(6) -.0096(4) -.0024(4) -.0031(5)
S8 S2- 0.0216(5) 0.0254(5) 0.0243(6) 0.0053(4) -.0022(4) 0.0005(5)
Na1 Na1+ 0.033(1) 0.079(2) 0.093(2) -.013(1) 0.007(1) -.054(2)
Na2 Na1+ 0.038(1) 0.042(7) 0.083(2) 0.0016(9) -.027(1) -.015(7)
Na3 Na1+ 0.0251(9) 0.0254(9) 0.026(1) -.0035(7) 0.010(7) 0.0022(7)
Na4 Na1+ 0.0265(9) 0.0300(9) 0.062(2) 0.0033(7) -.002(1) 0.0044(10)
Na5 Na1+ 0.0251(9) 0.0318(9) 0.0214(9) 0.0002(7) 0.0015(7) 0.0017(7)
Na6 Na1+ 0.056(2) 0.036(2) 0.026(2) 0.017(7) 0 0
Na7 Na1+ 0.032(2) 0.062(2) 0.025(2) 0.017(1) 0 0
#End of TTdata_51112-ICSD