
#(C) 2019 by FIZ Karlsruhe - Leibniz Institute for Information Infrastructure.  All rights reserved.
data_51337-ICSD
_database_code_ICSD 51337
_audit_creation_date 2002-10-01
_audit_update_record 2005-10-01
_chemical_name_systematic 'Sodium hydrogenfluorotrioxophosphate(V) 2.5-hydrate'
_chemical_formula_structural 'Na (H P O3 F) (H2 O)2.5'
_chemical_formula_sum 'H6 F1 Na1 O5.5 P1'
_exptl_crystal_density_diffrn 1.82
_cell_measurement_temperature 160.
_publ_section_title

;
The synthesis and crystal structures of two new hydrated sodium
monofluorophosphates: Na H P O3 F.2.5 H2 O(I) and Na2 P O3 F.10 H2 O(II)
;
loop_
_citation_id
_citation_journal_full
_citation_year
_citation_journal_volume
_citation_page_first
_citation_page_last
_citation_journal_id_ASTM
primary 'Journal of Solid State Chemistry' 2001 156 415 421 JSSCBI
loop_
_publ_author_name
'Prescott, H.A.'
'Troyanov, S.I.'
'Kemnitz, E.'
_cell_length_a 19.112(4)
_cell_length_b 5.341(1)
_cell_length_c 12.727(3)
_cell_angle_alpha 90.
_cell_angle_beta 110.18(3)
_cell_angle_gamma 90.
_cell_volume 1219.39
_cell_formula_units_Z 8
_symmetry_space_group_name_H-M 'C 1 2/c 1'
_symmetry_Int_Tables_number 15
_refine_ls_R_factor_all 0.0276
loop_
_symmetry_equiv_pos_site_id
_symmetry_equiv_pos_as_xyz
1 'x, -y, z+1/2'
2 '-x, -y, -z'
3 '-x, y, -z+1/2'
4 'x, y, z'
5 'x+1/2, -y+1/2, z+1/2'
6 '-x+1/2, -y+1/2, -z'
7 '-x+1/2, y+1/2, -z+1/2'
8 'x+1/2, y+1/2, z'
loop_
_atom_type_symbol
_atom_type_oxidation_number
Na1+ 1
P5+ 5
F1- -1
O2- -2
H1+ 1
loop_
_atom_site_label
_atom_site_type_symbol
_atom_site_symmetry_multiplicity
_atom_site_Wyckoff_symbol
_atom_site_fract_x
_atom_site_fract_y
_atom_site_fract_z
_atom_site_B_iso_or_equiv
_atom_site_occupancy
_atom_site_attached_hydrogens
Na1 Na1+ 8 f 0.02128(4) 0.91515(2) 0.37974(6) 0.0149(2) 1. 0
P1 P5+ 8 f 0.16319(2) 0.15824(9) 0.28108(4) 0.0117(2) 1. 0
F1 F1- 8 f 0.21319(6) 0.0129(3) 0.3872(1) 0.0246(3) 1. 0
O1 O2- 8 f 0.08396(7) 0.1121(3) 0.2673(1) 0.0166(3) 1. 0
O2 O2- 8 f 0.18949(7) 0.0805(3) 0.1870(1) 0.0158(3) 1. 0
O3 O2- 8 f 0.18254(8) 0.4378(3) 0.3152(1) 0.0202(3) 1. 0
O4 O2- 8 f 0.12326(8) 0.6497(3) 0.48432(1) 0.0173(3) 1. 0
O5 O2- 8 f 0.06758(8) 0.8010(3) 0.0343(1) 0.0173(3) 1. 0
O6 O2- 4 e 0 0.5746(4) 0.25 0.0187(4) 1. 0
H1 H1+ 8 f 0.223(2) 0.488(7) 0.309(3) 0.06(1) 1. 0
H2 H1+ 8 f 0.147(1) 0.609(5) 0.4434(2) 0.031(7) 1. 0
H3 H1+ 8 f 0.148(2) 0.7097(6) 0.5381(2) 0.033(8) 1. 0
H4 H1+ 8 f 0.080(2) 0.658(6) 0.015(2) 0.043(8) 1. 0
H5 H1+ 8 f 0.107(2) 0.870(6) 0.079(3) 0.043(8) 1. 0
H6 H1+ 8 f 0.036(2) 0.477(6) 0.255(3) 0.051(9) 1. 0
#End of TTdata_51337-ICSD