
#(C) 2019 by FIZ Karlsruhe - Leibniz Institute for Information Infrastructure.  All rights reserved.
data_51451-ICSD
_database_code_ICSD 51451
_audit_creation_date 2003-04-01
_chemical_name_systematic
'Disodium diindium tetrakis(hydrogenphosphate(V)) hydrate'
_chemical_formula_structural 'Na2 In2 (P O3 (O H))4 (H2 O)'
_chemical_formula_sum 'H6 In2 Na2 O17 P4'
_exptl_crystal_density_diffrn 3.22
_publ_section_title

;
Hydrothermal synthesis and crystal structure of Na2 In2 (P O3 (O H))4.H2 O
with a new structure type
;
loop_
_citation_id
_citation_journal_full
_citation_year
_citation_journal_volume
_citation_page_first
_citation_page_last
_citation_journal_id_ASTM
primary 'Journal of Solid State Chemistry' 2001 157 213 219 JSSCBI
loop_
_publ_author_name
'Mi Jinxiao'
'Huang, Y.-X.'
'Mao, S.-Y.'
'Huang, X.-D.'
'Wei, Z.-B.'
'Huang, Z.-L.'
'Zhao, J.-T.'
_cell_length_a 9.30131(1)
_cell_length_b 9.4976(1)
_cell_length_c 9.2685(7)
_cell_angle_alpha 98.710(4)
_cell_angle_beta 98.953(4)
_cell_angle_gamma 60.228(6)
_cell_volume 699.42
_cell_formula_units_Z 2
_symmetry_space_group_name_H-M 'P -1'
_symmetry_Int_Tables_number 2
_refine_ls_R_factor_all 0.0551
loop_
_symmetry_equiv_pos_site_id
_symmetry_equiv_pos_as_xyz
1 '-x, -y, -z'
2 'x, y, z'
loop_
_atom_type_symbol
_atom_type_oxidation_number
Na1+ 1
In3+ 3
P5+ 5
O2- -2
H1+ 1
loop_
_atom_site_label
_atom_site_type_symbol
_atom_site_symmetry_multiplicity
_atom_site_Wyckoff_symbol
_atom_site_fract_x
_atom_site_fract_y
_atom_site_fract_z
_atom_site_B_iso_or_equiv
_atom_site_occupancy
_atom_site_attached_hydrogens
Na1 Na1+ 2 i 0.2266(4) 0.2964(4) 0.6926(4) 0.0269(6) 1. 0
Na2 Na1+ 2 i 0.0983(4) 0.8026(5) 0.2483(4) 0.0362(8) 1. 0
In1 In3+ 2 i 0.4593(4) 0.2924(4) 0.1305(4) 0.0687(9) 1. 0
In2 In3+ 2 i 0.0451(4) 0.2175(4) 0.3705(4) 0.0702(9) 1. 0
P1 P5+ 2 i 0.2378(2) 0.4559(2) 0.4187(2) 0.0088(2) 1. 0
P2 P5+ 2 i 0.3371(2) 0.0073(2) 0.1401(2) 0.0096(2) 1. 0
P3 P5+ 2 i 0.2381(2) 0.9109(2) 0.5960(2) 0.0073(2) 1. 0
P4 P5+ 2 i 0.2563(2) 0.5854(2) -.1118(2) 0.0087(2) 1. 0
O1 O2- 2 i 0.6022(5) 0.1418(5) 0.3030(5) 0.0140(8) 1. 0
O2 O2- 2 i -.1005(5) 0.0929(5) 0.3405(5) 0.0142(7) 1. 0
O3 O2- 2 i 0.1839(5) 0.0792(5) 0.5531(5) 0.0158(8) 1. 0
O4 O2- 2 i 0.3221(5) 0.1608(5) 0.0901(6) 0.0131(7) 1. 0
O5 O2- 2 i 0.2930(6) 0.4674(5) 0.2765(5) 0.0165(8) 1. 0
O6 O2- 2 i -.0828(5) 0.3850(5) 0.5452(5) 0.0152(8) 1. 0
O7 O2- 2 i 0.6077(5) 0.4122(5) 0.1829(5) 0.0142(7) 1. 0
O8 O2- 2 i 0.6421(6) 0.1205(5) -.0126(5) 0.0176(9) 1. 0
O9 O2- 2 i 0.2197(5) 0.3062(5) 0.4190(6) 0.0149(8) 1. 0
O10 O2- 2 i 0.3157(6) 0.4271(5) -.0471(5) 0.0187(9) 1. 0
O11 O2- 2 i 0.1862(5) 0.0388(5) 0.2111(5) 0.0146(8) 1. 0
O12 O2- 2 i -.1125(5) 0.3966(5) 0.2252(6) 0.0156(8) 1. 0
O13 O2- 2 i 0.4968(6) 0.9304(5) 0.2507(6) 0.0190(9) 1. 0
O14 O2- 2 i 0.3848(6) 0.4291(6) 0.5457(6) 0.0209(9) 1. 0
O15 O2- 2 i 0.2831(6) 0.7861(5) 0.4548(5) 0.0161(8) 1. 0
O16 O2- 2 i 0.1948(7) 0.7293(6) 0.0110(6) 0.023(1) 1. 0
O17 O2- 2 i -.0695(8) 0.6965(8) 0.1299(7) 0.032(1) 1. 0
H1 H1+ 2 i 0.365 0.744 0.422 0.05 1. 0
H2 H1+ 2 i 0.501 0.997 0.279 0.05 1. 0
H3 H1+ 2 i 0.4 0.473 0.63 0.05 1. 0
H4 H1+ 2 i 0.209 0.808 0.036 0.05 1. 0
H5 H1+ 2 i 0.01 0.586 0.086 0.05 1. 0
H6 H1+ 2 i -.19 0.783 0.035 0.05 1. 0
#End of TTdata_51451-ICSD