
#(C) 2019 by FIZ Karlsruhe - Leibniz Institute for Information Infrastructure.  All rights reserved.
data_51463-ICSD
_database_code_ICSD 51463
_audit_creation_date 2003-04-01
_audit_update_record 2012-02-01
_chemical_name_systematic 'Sodium yttrium fluoride phosphate(V)'
_chemical_formula_structural 'Na Y F (P O4)'
_chemical_formula_sum 'F1 Na1 O4 P1 Y1'
_chemical_name_structure_type NaYFPO4
_exptl_crystal_density_diffrn 3.89
_publ_section_title

;
Hydrothermal synthesis and crystal structure of a new sodium yttrium fluoride
phosphate Na Y F P O4
;
loop_
_citation_id
_citation_journal_full
_citation_year
_citation_journal_volume
_citation_page_first
_citation_page_last
_citation_journal_id_ASTM
primary 'Journal of Solid State Chemistry' 2001 157 8 12 JSSCBI
loop_
_publ_author_name
'Zhizhin, M.G.'
'Olenev, A.V.'
'Spiridonov, F.M.'
'Komissarova, L.N.'
'D'yachenko, O.G. (Dyachenko, O.G.)'
_cell_length_a 8.944(2)
_cell_length_b 6.930(1)
_cell_length_c 6.469(1)
_cell_angle_alpha 90
_cell_angle_beta 106.11(3)
_cell_angle_gamma 90
_cell_volume 385.22
_cell_formula_units_Z 4
_symmetry_space_group_name_H-M 'C 1 2/m 1'
_symmetry_Int_Tables_number 12
_refine_ls_R_factor_all 0.0244
loop_
_symmetry_equiv_pos_site_id
_symmetry_equiv_pos_as_xyz
1 '-x, y, -z'
2 '-x, -y, -z'
3 'x, -y, z'
4 'x, y, z'
5 '-x+1/2, y+1/2, -z'
6 '-x+1/2, -y+1/2, -z'
7 'x+1/2, -y+1/2, z'
8 'x+1/2, y+1/2, z'
loop_
_atom_type_symbol
_atom_type_oxidation_number
Y3+ 3
Na1+ 1
P5+ 5
F1- -1
O2- -2
loop_
_atom_site_label
_atom_site_type_symbol
_atom_site_symmetry_multiplicity
_atom_site_Wyckoff_symbol
_atom_site_fract_x
_atom_site_fract_y
_atom_site_fract_z
_atom_site_B_iso_or_equiv
_atom_site_occupancy
_atom_site_attached_hydrogens
Y1 Y3+ 4 i 0.71714(7) 0. 0.11749(8) 0.0051(2) 1. 0
Na1 Na1+ 4 h 0.5 0.2054(4) 0.5 0.0218(7) 1. 0
P1 P5+ 4 i 0.1535(2) 0. 0.2760(2) 0.0051(3) 1. 0
F1 F1- 4 i 0.4823(4) 0. 0.1898(5) 0.0108(8) 1. 0
O1 O2- 8 j 0.6953(3) 0.6743(5) 0.1562(4) 0.0095(7) 1. 0
O2 O2- 4 i 0.7455(6) 0. 0.4920(7) 0.0120(10) 1. 0
O3 O2- 4 i 0.9809(5) 0. 0.2699(7) 0.0110(10) 1. 0
#End of TTdata_51463-ICSD