
#(C) 2019 by FIZ Karlsruhe - Leibniz Institute for Information Infrastructure.  All rights reserved.
data_51719-ICSD
_database_code_ICSD 51719
_audit_creation_date 2003-10-01
_audit_update_record 2009-02-01
_chemical_name_systematic 'Sodium cadmium indium phosphate(V) (0.6/0.74/1.95/3)'
_chemical_formula_structural 'Na0.603 Cd0.474 In1.948 (P O4)3'
_chemical_formula_sum 'Cd0.474 In1.948 Na0.603 O12 P3'
_chemical_name_structure_type Alluaudite
_exptl_crystal_density_diffrn 3.96
_publ_section_title

;
The crystal chemistry of lithium in the alluaudite structure: a study of the
(Na(1-x) Li(x)) Cd In2 (P O4)3 solid solution (x= 0 to 1)
;
loop_
_citation_id
_citation_journal_full
_citation_year
_citation_journal_volume
_citation_page_first
_citation_page_last
_citation_journal_id_ASTM
primary 'Journal of Solid State Chemistry' 2002 163 194 201 JSSCBI
loop_
_publ_author_name
'Hatert, F.'
'Antenucci, D.'
'Fransolet, A.M.'
'Liegeois-Duyckaerts, M.'
_cell_length_a 12.517(3)
_cell_length_b 12.996(3)
_cell_length_c 6.571(2)
_cell_angle_alpha 90
_cell_angle_beta 115.36(2)
_cell_angle_gamma 90
_cell_volume 965.9
_cell_formula_units_Z 4
_symmetry_space_group_name_H-M 'C 1 2/c 1'
_symmetry_Int_Tables_number 15
_refine_ls_R_factor_all 0.032
loop_
_symmetry_equiv_pos_site_id
_symmetry_equiv_pos_as_xyz
1 'x, -y, z+1/2'
2 '-x, -y, -z'
3 '-x, y, -z+1/2'
4 'x, y, z'
5 'x+1/2, -y+1/2, z+1/2'
6 '-x+1/2, -y+1/2, -z'
7 '-x+1/2, y+1/2, -z+1/2'
8 'x+1/2, y+1/2, z'
loop_
_atom_type_symbol
_atom_type_oxidation_number
Na1+ 1
Cd2+ 2
In3+ 3.82
P5+ 5
O2- -2
loop_
_atom_site_label
_atom_site_type_symbol
_atom_site_symmetry_multiplicity
_atom_site_Wyckoff_symbol
_atom_site_fract_x
_atom_site_fract_y
_atom_site_fract_z
_atom_site_B_iso_or_equiv
_atom_site_occupancy
_atom_site_attached_hydrogens
Na1 Na1+ 4 e 0. 0.019(7) 0.25 1. 0.053(6) 0
Na2 Na1+ 4 b 0.5 0. 0. 3.9(5) 0.55(1) 0
Cd1 Cd2+ 4 e 0. 0.2624(2) 0.25 0.4(1) 0.474(3) 0
In1 In3+ 8 f 0.2803(1) 0.6504(1) 0.3687(3) 0.45(6) 0.974(7) 0
P1 P5+ 4 e 0. -.2858(7) 0.25 1. 1. 0
P2 P5+ 8 f 0.2428(5) -.1094(4) 0.141(1) 1. 1. 0
O1 O2- 8 f 0.453(1) 0.7161(8) 0.543(2) 0.8(1) 1. 0
O2 O2- 8 f 0.094(1) 0.640(1) 0.238(2) 0.8(1) 1. 0
O3 O2- 8 f 0.3286(9) 0.6583(9) 0.101(2) 0.8(1) 1. 0
O4 O2- 8 f 0.128(1) 0.4008(8) 0.324(2) 0.8(1) 1. 0
O5 O2- 8 f 0.2287(9) 0.8214(8) 0.318(2) 0.8(1) 1. 0
O6 O2- 8 f 0.3113(9) 0.4947(9) 0.359(2) 0.8(1) 1. 0
#End of TTdata_51719-ICSD