
#(C) 2019 by FIZ Karlsruhe - Leibniz Institute for Information Infrastructure.  All rights reserved.
data_51781-ICSD
_database_code_ICSD 51781
_audit_creation_date 2004-04-01
_chemical_name_systematic 'Lanthanum sodium titanium oxide (1.05/0.84/2/6)'
_chemical_formula_structural '(La1.05 Na0.84) Ti2 O6'
_chemical_formula_sum 'La1.05 Na0.84 O6 Ti2'
_exptl_crystal_density_diffrn 5.1
_publ_section_title
'New La2/3 Ti O3 derivatives: structure and impedance spectroscopy'
loop_
_citation_id
_citation_journal_full
_citation_year
_citation_journal_volume
_citation_page_first
_citation_page_last
_citation_journal_id_ASTM
primary 'Journal of Solid State Chemistry' 2002 163 472 478 JSSCBI
loop_
_publ_author_name
'Ruiz, A.I.'
'Lopez, M.L.'
'Pico, C.'
'Veiga, M.L.'
_cell_length_a 5.4798(2)
_cell_length_b 5.4753(4)
_cell_length_c 7.7432(5)
_cell_angle_alpha 90
_cell_angle_beta 90
_cell_angle_gamma 90
_cell_volume 232.32
_cell_formula_units_Z 2
_symmetry_space_group_name_H-M 'I b m m'
_symmetry_Int_Tables_number 74
_refine_ls_R_factor_all 0.0529
loop_
_symmetry_equiv_pos_site_id
_symmetry_equiv_pos_as_xyz
1 '-x, -y, z+1/2'
2 'x, -y, -z+1/2'
3 'x, -y, z'
4 '-x, -y, -z'
5 'x, y, -z+1/2'
6 '-x, y, z+1/2'
7 '-x, y, -z'
8 'x, y, z'
9 '-x+1/2, -y+1/2, z'
10 'x+1/2, -y+1/2, -z'
11 'x+1/2, -y+1/2, z+1/2'
12 '-x+1/2, -y+1/2, -z+1/2'
13 'x+1/2, y+1/2, -z'
14 '-x+1/2, y+1/2, z'
15 '-x+1/2, y+1/2, -z+1/2'
16 'x+1/2, y+1/2, z+1/2'
loop_
_atom_type_symbol
_atom_type_oxidation_number
La3+ 3
Na1+ 1
Ti4+ 4
O2- -2
loop_
_atom_site_label
_atom_site_type_symbol
_atom_site_symmetry_multiplicity
_atom_site_Wyckoff_symbol
_atom_site_fract_x
_atom_site_fract_y
_atom_site_fract_z
_atom_site_B_iso_or_equiv
_atom_site_occupancy
_atom_site_attached_hydrogens
La1 La3+ 4 e 0.0019(1) 0. 0.25 0.97(34) 0.525 0
Na1 Na1+ 4 e 0.0030(4) 0. 0.25 0.97(34) 0.42 0
Ti1 Ti4+ 4 b 0. 0.5 0. 0.82(8) 1. 0
O1 O2- 4 e 0.0452(2) 0.5 0.25 1.52(1) 1. 0
O2 O2- 8 g 0.75 0.25 0.0238(5) 1.38(7) 1. 0
#End of TTdata_51781-ICSD