
#(C) 2019 by FIZ Karlsruhe - Leibniz Institute for Information Infrastructure.  All rights reserved.
data_51802-ICSD
_database_code_ICSD 51802
_audit_creation_date 2004-04-01
_chemical_name_systematic 'Tellurium sodium diniobophosphate(V) (0.79/0.21/1)'
_chemical_formula_structural 'Tl0.792 Na0.213 (Nb2 P O8)'
_chemical_formula_sum 'Na0.213 Nb2 O8 P1 Tl0.792'
_exptl_crystal_density_diffrn 4.8
_publ_section_title

;
Tl(1-x) Na(x) Nb2 P O8 and related compounds, isostructural with Ca(0.5+x) Cs2
Nb6 P3 O24
;
loop_
_citation_id
_citation_journal_full
_citation_year
_citation_journal_volume
_citation_page_first
_citation_page_last
_citation_journal_id_ASTM
primary 'Journal of Solid State Chemistry' 2002 164 272 279 JSSCBI
loop_
_publ_author_name
'Fakhfakh, M.'
'Kahn-Harari, A.'
'Bulou, A.'
'Jouini, N.'
_cell_length_a 13.345(2)
_cell_length_b 13.345(2)
_cell_length_c 10.324(3)
_cell_angle_alpha 90
_cell_angle_beta 90
_cell_angle_gamma 120
_cell_volume 1592.27
_cell_formula_units_Z 9
_symmetry_space_group_name_H-M 'R 3 2 H'
_symmetry_Int_Tables_number 155
_refine_ls_R_factor_all 0.0489
loop_
_symmetry_equiv_pos_site_id
_symmetry_equiv_pos_as_xyz
1 '-x, -x+y, -z'
2 'x-y, -y, -z'
3 'y, x, -z'
4 '-x+y, -x, z'
5 '-y, x-y, z'
6 'x, y, z'
7 '-x+2/3, -x+y+1/3, -z+1/3'
8 'x-y+2/3, -y+1/3, -z+1/3'
9 'y+2/3, x+1/3, -z+1/3'
10 '-x+y+2/3, -x+1/3, z+1/3'
11 '-y+2/3, x-y+1/3, z+1/3'
12 'x+2/3, y+1/3, z+1/3'
13 '-x+1/3, -x+y+2/3, -z+2/3'
14 'x-y+1/3, -y+2/3, -z+2/3'
15 'y+1/3, x+2/3, -z+2/3'
16 '-x+y+1/3, -x+2/3, z+2/3'
17 '-y+1/3, x-y+2/3, z+2/3'
18 'x+1/3, y+2/3, z+2/3'
loop_
_atom_type_symbol
_atom_type_oxidation_number
Tl1+ 1
Na1+ 1
Nb5+ 5
P5+ 5
O2- -2
loop_
_atom_site_label
_atom_site_type_symbol
_atom_site_symmetry_multiplicity
_atom_site_Wyckoff_symbol
_atom_site_fract_x
_atom_site_fract_y
_atom_site_fract_z
_atom_site_B_iso_or_equiv
_atom_site_occupancy
_atom_site_attached_hydrogens
Tl1 Tl1+ 18 f 0.6969(7) 0.999(2) 0.911(2) 0.086(4) 0.187(7) 0
Tl2 Tl1+ 9 e 0.6194(5) 0. 0.5 0.044(2) 0.27(2) 0
Tl3 Tl1+ 9 d 0.700(3) 0. 0. 0.04(2) 0.048(7) 0
Tl4 Tl1+ 18 f 0.690(2) 0.963(2) 0.869(3) 0.01(1) 0.05(2) 0
Na1 Na1+ 3 a 0. 0. 0. 0.013(5) 0.64(2) 0
Nb1 Nb5+ 18 f 0.5222(1) 0.1619(1) 0.0143(2) 0.0063(4) 1. 0
P1 P5+ 9 d 0.2287(4) 0. 0. 0.006(1) 1. 0
O1 O2- 18 f 0.1491(9) 0.9765(9) 0.1180(8) 0.010(2) 1. 0
O2 O2- 9 e 0.153(2) 0. 0.5 0.020(4) 1. 0
O3 O2- 18 f 0.3450(7) 0.1070(8) 0.0267(9) 0.008(2) 1. 0
O4 O2- 9 d 0.475(1) 0. 0. 0.009(3) 1. 0
O5 O2- 18 f 0.6795(8) 0.2181(8) 0.0313(9) 0.011(2) 1. 0
#End of TTdata_51802-ICSD