
#(C) 2019 by FIZ Karlsruhe - Leibniz Institute for Information Infrastructure.  All rights reserved.
data_52529-ICSD
_database_code_ICSD 52529
_audit_creation_date 2003-04-01
_audit_update_record 2012-02-01
_chemical_name_systematic 'Sodium nickel hydrogendiphosphate(V)'
_chemical_formula_structural 'Na Ni (H P2 O7)'
_chemical_formula_sum 'H1 Na1 Ni1 O7 P2'
_chemical_name_structure_type NaNiHP2O7
_exptl_crystal_density_diffrn 3.36
_publ_section_title
'Is there any Zr in 'Na2 NiZr (P2 O7)2' or 'Na2 CoZr (P2 O7)2' ?'
loop_
_citation_id
_citation_journal_full
_citation_year
_citation_journal_volume
_citation_page_first
_citation_page_last
_citation_journal_id_ASTM
primary 'Acta Crystallographica, Section C: Crystal Structure Communications'
1990 46 2497 2499 ACSCEE
loop_
_publ_author_name
'Marsh, E.'
_cell_length_a 6.461(3)
_cell_length_b 7.257(4)
_cell_length_c 6.501(3)
_cell_angle_alpha 123.24(1)
_cell_angle_beta 91.95(1)
_cell_angle_gamma 93.79(1)
_cell_volume 253.48
_cell_formula_units_Z 2
_symmetry_space_group_name_H-M 'P -1'
_symmetry_Int_Tables_number 2
_refine_ls_R_factor_all 0.034
loop_
_symmetry_equiv_pos_site_id
_symmetry_equiv_pos_as_xyz
1 '-x, -y, -z'
2 'x, y, z'
loop_
_atom_type_symbol
_atom_type_oxidation_number
Ni2+ 2
P5+ 5
O2- -2
Na1+ 1
H1+ 1
loop_
_atom_site_label
_atom_site_type_symbol
_atom_site_symmetry_multiplicity
_atom_site_Wyckoff_symbol
_atom_site_fract_x
_atom_site_fract_y
_atom_site_fract_z
_atom_site_B_iso_or_equiv
_atom_site_occupancy
_atom_site_attached_hydrogens
Ni1 Ni2+ 2 i 0.3571(1) 0.1082(1) 0.3942 0.0079(1) 1. 0
P1 P5+ 2 i -.3816(2) 0.3640(2) 0.1987(2) 0.0075(2) 1. 0
P2 P5+ 2 i -.1410(2) 0.2191(2) 0.4749(2) 0.0075(2) 1. 0
O1 O2- 2 i -.2967(5) 0.2189(5) -.0588(6) 0.0118(8) 1. 0
O2 O2- 2 i -.5794(5) 0.2498(6) 0.2053(6) 0.0124(7) 1. 0
O3 O2- 2 i -.3865(5) 0.5975(5) 0.2683(6) 0.0117(6) 1. 0
O4 O2- 2 i -.2075(5) 0.3757(5) 0.3879(6) 0.0123(6) 1. 0
O5 O2- 2 i 0.0394(5) 0.1040(5) 0.3333(6) 0.0128(7) 1. 0
O6 O2- 2 i -.3296(5) 0.0514(5) 0.4139(6) 0.0100(6) 1. 0
O7 O2- 2 i -.0907(5) 0.3748(5) 0.7536(5) 0.0109(8) 1. 0
Na1 Na1+ 2 i 0.1141(12) 0.2413(10) 0.0133(14) 0.0228 0.38(2) 0
Na2 Na1+ 2 i 0.1615(7) 0.2612(6) -.0482(8) 0.0165 0.62 0
H1 H1+ 2 i -.192 0.297 -.152 0.0253 1. 0
#End of TTdata_52529-ICSD