
#(C) 2019 by FIZ Karlsruhe - Leibniz Institute for Information Infrastructure.  All rights reserved.
data_52530-ICSD
_database_code_ICSD 52530
_audit_creation_date 2003-04-01
_audit_update_record 2007-08-01
_chemical_name_systematic 'Sodium cobalt hydrogendiphosphate(V)'
_chemical_formula_structural 'Na Co (H P2 O7)'
_chemical_formula_sum 'H1 Co1 Na1 O7 P2'
_chemical_name_structure_type NaNiHP2O7
_exptl_crystal_density_diffrn 3.32
_publ_section_title
'Is there any Zr in 'Na2 NiZr (P2 O7)2' or 'Na2 CoZr (P2 O7)2' ?'
loop_
_citation_id
_citation_journal_full
_citation_year
_citation_journal_volume
_citation_page_first
_citation_page_last
_citation_journal_id_ASTM
primary 'Acta Crystallographica, Section C: Crystal Structure Communications'
1990 46 2497 2499 ACSCEE
loop_
_publ_author_name
'Marsh, E.'
_cell_length_a 6.535(3)
_cell_length_b 7.266(4)
_cell_length_c 6.496(3)
_cell_angle_alpha 122.96(2)
_cell_angle_beta 92.28(2)
_cell_angle_gamma 93.75(2)
_cell_volume 257.2
_cell_formula_units_Z 2
_symmetry_space_group_name_H-M 'P -1'
_symmetry_Int_Tables_number 2
_refine_ls_R_factor_all 0.033
loop_
_symmetry_equiv_pos_site_id
_symmetry_equiv_pos_as_xyz
1 '-x, -y, -z'
2 'x, y, z'
loop_
_atom_type_symbol
_atom_type_oxidation_number
Co2+ 2
P5+ 5
O2- -2
Na1+ 1
H1+ 1
loop_
_atom_site_label
_atom_site_type_symbol
_atom_site_symmetry_multiplicity
_atom_site_Wyckoff_symbol
_atom_site_fract_x
_atom_site_fract_y
_atom_site_fract_z
_atom_site_B_iso_or_equiv
_atom_site_occupancy
_atom_site_attached_hydrogens
Co1 Co2+ 2 i 0.3544(1) 0.1106(1) 0.3937 0.0085(1) 1. 0
P1 P5+ 2 i -.3796(2) 0.3640(2) 0.1962(2) 0.0077(1) 1. 0
P2 P5+ 2 i -.1427(2) 0.2200(2) 0.4732(2) 0.0073(2) 1. 0
O1 O2- 2 i -.2900(5) 0.2201(5) -.0564(5) 0.0126(6) 1. 0
O2 O2- 2 i -.5767(4) 0.2480(5) 0.1986(6) 0.0120(5) 1. 0
O3 O2- 2 i -.3854(5) 0.5965(5) 0.2649(5) 0.0121(5) 1. 0
O4 O2- 2 i -.2122(4) 0.3794(5) 0.3931(6) 0.0115(5) 1. 0
O5 O2- 2 i 0.0347(4) 0.1080(5) 0.3297(6) 0.0133(6) 1. 0
O6 O2- 2 i -.3273(4) 0.0537(5) 0.4162(5) 0.0096(5) 1. 0
O7 O2- 2 i -.0894(5) 0.3729(5) 0.7518(5) 0.0114(5) 1. 0
Na1 Na1+ 2 i 0.1139(10) 0.2437(8) 0.0171(12) 0.0228 0.43(1) 0
Na2 Na1+ 2 i 0.1605(6) 0.2582(6) -.0470(8) 0.0165 0.57 0
H1 H1+ 2 i -.1896 0.2964 -.1522 0.0253 1. 0
#End of TTdata_52530-ICSD