
#(C) 2019 by FIZ Karlsruhe - Leibniz Institute for Information Infrastructure.  All rights reserved.
data_54198-ICSD
_database_code_ICSD 54198
_audit_creation_date 2004-04-01
_chemical_name_systematic 'Sodium thulium germanate'
_chemical_formula_structural 'Na Tm (Ge O4)'
_chemical_formula_sum 'Ge1 Na1 O4 Tm1'
_chemical_name_structure_type Olivine-Mg2SiO4
_exptl_crystal_density_diffrn 5.73
_cell_measurement_temperature 296.2
_publ_section_title

;
Hydrothermal synthesis and structural chracterization of Na Ln Ge O4 (Ln= Ho,
Er, Tb, Tm, Yb, Lu) family of lanthanide germanides
;
loop_
_citation_id
_citation_journal_full
_citation_year
_citation_journal_volume
_citation_page_first
_citation_page_last
_citation_journal_id_ASTM
primary 'Journal of Chemical Crystallography' 2001 31 281 285 JCCYEV
loop_
_publ_author_name
'Emirdag-Eanes, M.'
'Krawiec, M.'
'Kolis, J.W.'
_cell_length_a 11.338(2)
_cell_length_b 6.4038(8)
_cell_length_c 5.243(3)
_cell_angle_alpha 90.
_cell_angle_beta 90.
_cell_angle_gamma 90.
_cell_volume 380.67
_cell_formula_units_Z 4
_symmetry_space_group_name_H-M 'P n m a'
_symmetry_Int_Tables_number 62
_refine_ls_R_factor_all 0.0261
loop_
_symmetry_equiv_pos_site_id
_symmetry_equiv_pos_as_xyz
1 'x+1/2, y, -z+1/2'
2 'x, -y+1/2, z'
3 '-x+1/2, y+1/2, z+1/2'
4 '-x, -y, -z'
5 '-x+1/2, -y, z+1/2'
6 '-x, y+1/2, -z'
7 'x+1/2, -y+1/2, -z+1/2'
8 'x, y, z'
loop_
_atom_type_symbol
_atom_type_oxidation_number
Tm3+ 3
Ge4+ 4
Na1+ 1
O2- -2
loop_
_atom_site_label
_atom_site_type_symbol
_atom_site_symmetry_multiplicity
_atom_site_Wyckoff_symbol
_atom_site_fract_x
_atom_site_fract_y
_atom_site_fract_z
_atom_site_B_iso_or_equiv
_atom_site_occupancy
_atom_site_attached_hydrogens
Tm1 Tm3+ 4 c 0.27758(2) 0.25 0.49647(6) . 1. 0
Ge1 Ge4+ 4 c 0.59788(6) 0.25 0.4469(1) . 1. 0
Na1 Na1+ 4 b 0.5 0.5 1 . 1. 0
O1 O2- 4 c 0.6105(4) 0.25 0.7733(9) . 1. 0
O2 O2- 8 d 0.6743(3) 0.4578(6) 0.2923(6) . 1. 0
O3 O2- 4 c 0.4546(4) 0.25 0.3274(9) . 1. 0
loop_
_atom_site_aniso_label
_atom_site_aniso_type_symbol
_atom_site_aniso_U_11
_atom_site_aniso_U_22
_atom_site_aniso_U_33
_atom_site_aniso_U_12
_atom_site_aniso_U_13
_atom_site_aniso_U_23
Tm1 Tm3+ 0.0043(2) 0.0040(2) 0.0043(2) 0 -0.00017(11) 0
Ge1 Ge4+ 0.0050(3) 0.0055(3) 0.0057(4) 0 0.0000(3) 0
Na1 Na1+ 0.0141(12) 0.0108(13) 0.0084(13) 0.0051(12) 0.0011(10) 0.0019(11)
O1 O2- 0.009(2) 0.011(3) 0.003(2) 0 -0.001(2) 0
O2 O2- 0.008(2) 0.008(2) 0.006(2) -0.0001(13) 0.0021(12) -0.0006(13)
O3 O2- 0.006(2) 0.011(3) 0.006(2) 0 -0.001(2) 0
#End of TTdata_54198-ICSD