
#(C) 2019 by FIZ Karlsruhe - Leibniz Institute for Information Infrastructure.  All rights reserved.
data_54199-ICSD
_database_code_ICSD 54199
_audit_creation_date 2004-04-01
_chemical_name_systematic 'Sodium erbium germanate'
_chemical_formula_structural 'Na Er (Ge O4)'
_chemical_formula_sum 'Er1 Ge1 Na1 O4'
_chemical_name_structure_type Olivine-Mg2SiO4
_exptl_crystal_density_diffrn 5.65
_cell_measurement_temperature 298.
_publ_section_title

;
Hydrothermal synthesis and structural chracterization of Na Ln Ge O4 (Ln= Ho,
Er, Tb, Tm, Yb, Lu) family of lanthanide germanides
;
loop_
_citation_id
_citation_journal_full
_citation_year
_citation_journal_volume
_citation_page_first
_citation_page_last
_citation_journal_id_ASTM
primary 'Journal of Chemical Crystallography' 2001 31 281 285 JCCYEV
loop_
_publ_author_name
'Emirdag-Eanes, M.'
'Krawiec, M.'
'Kolis, J.W.'
_cell_length_a 11.377(2)
_cell_length_b 6.4182(5)
_cell_length_c 5.262(3)
_cell_angle_alpha 90.
_cell_angle_beta 90.
_cell_angle_gamma 90.
_cell_volume 384.23
_cell_formula_units_Z 4
_symmetry_space_group_name_H-M 'P n m a'
_symmetry_Int_Tables_number 62
_refine_ls_R_factor_all 0.0286
loop_
_symmetry_equiv_pos_site_id
_symmetry_equiv_pos_as_xyz
1 'x+1/2, y, -z+1/2'
2 'x, -y+1/2, z'
3 '-x+1/2, y+1/2, z+1/2'
4 '-x, -y, -z'
5 '-x+1/2, -y, z+1/2'
6 '-x, y+1/2, -z'
7 'x+1/2, -y+1/2, -z+1/2'
8 'x, y, z'
loop_
_atom_type_symbol
_atom_type_oxidation_number
Er3+ 3
Ge4+ 4
Na1+ 1
O2- -2
loop_
_atom_site_label
_atom_site_type_symbol
_atom_site_symmetry_multiplicity
_atom_site_Wyckoff_symbol
_atom_site_fract_x
_atom_site_fract_y
_atom_site_fract_z
_atom_site_B_iso_or_equiv
_atom_site_occupancy
_atom_site_attached_hydrogens
Er1 Er3+ 4 c 0.27746(2) 0.25 0.50360(4) . 1. 0
Ge1 Ge4+ 4 c 0.59738(5) 0.25 0.55458(11) . 1. 0
Na1 Na1+ 4 b 0.5 0.5 0 . 1. 0
O1 O2- 4 c 0.6104(4) 0.25 0.2281(7) . 1. 0
O2 O2- 4 c 0.4547(4) 0.25 0.6728(8) . 1. 0
O3 O2- 8 d 0.6740(2) 0.4575(5) 0.7080(5) . 1. 0
loop_
_atom_site_aniso_label
_atom_site_aniso_type_symbol
_atom_site_aniso_U_11
_atom_site_aniso_U_22
_atom_site_aniso_U_33
_atom_site_aniso_U_12
_atom_site_aniso_U_13
_atom_site_aniso_U_23
Er1 Er3+ 0.0054(2) 0.0053(2) 0.0050(2) 0 0.00019(8) 0
Ge1 Ge4+ 0.0059(3) 0.0064(3) 0.0057(3) 0 -0.0001(2) 0
Na1 Na1+ 0.0147(10) 0.0117(12) 0.0108(12) 0.0048(9) 0.0002(8) -0.0018(8)
O1 O2- 0.013(2) 0.013(2) 0.003(2) 0 -0.001(2) 0
O2 O2- 0.008(2) 0.012(2) 0.009(2) 0 0.001(2) 0
O3 O2- 0.0097(13) 0.0086(13) 0.008(1) -0.0022(10) -0.0015(10) 0.0011(10)
#End of TTdata_54199-ICSD