
#(C) 2019 by FIZ Karlsruhe - Leibniz Institute for Information Infrastructure.  All rights reserved.
data_54196-ICSD
_database_code_ICSD 54196
_audit_creation_date 2004-04-01
_chemical_name_systematic 'Sodium lutetium germanate'
_chemical_formula_structural 'Na Lu (Ge O4)'
_chemical_formula_sum 'Ge1 Lu1 Na1 O4'
_chemical_name_structure_type Olivine-Mg2SiO4
_exptl_crystal_density_diffrn 5.95
_cell_measurement_temperature 298.
_publ_section_title

;
Hydrothermal synthesis and structural chracterization of Na Ln Ge O4 (Ln= Ho,
Er, Tb, Tm, Yb, Lu) family of lanthanide germanides
;
loop_
_citation_id
_citation_journal_full
_citation_year
_citation_journal_volume
_citation_page_first
_citation_page_last
_citation_journal_id_ASTM
primary 'Journal of Chemical Crystallography' 2001 31 281 285 JCCYEV
loop_
_publ_author_name
'Emirdag-Eanes, M.'
'Krawiec, M.'
'Kolis, J.W.'
_cell_length_a 11.242(2)
_cell_length_b 6.3464(10)
_cell_length_c 5.235(2)
_cell_angle_alpha 90.
_cell_angle_beta 90.
_cell_angle_gamma 90.
_cell_volume 373.5
_cell_formula_units_Z 4
_symmetry_space_group_name_H-M 'P n m a'
_symmetry_Int_Tables_number 62
_refine_ls_R_factor_all 0.0503
loop_
_symmetry_equiv_pos_site_id
_symmetry_equiv_pos_as_xyz
1 'x+1/2, y, -z+1/2'
2 'x, -y+1/2, z'
3 '-x+1/2, y+1/2, z+1/2'
4 '-x, -y, -z'
5 '-x+1/2, -y, z+1/2'
6 '-x, y+1/2, -z'
7 'x+1/2, -y+1/2, -z+1/2'
8 'x, y, z'
loop_
_atom_type_symbol
_atom_type_oxidation_number
Lu3+ 3
Ge4+ 4
Na1+ 1
O2- -2
loop_
_atom_site_label
_atom_site_type_symbol
_atom_site_symmetry_multiplicity
_atom_site_Wyckoff_symbol
_atom_site_fract_x
_atom_site_fract_y
_atom_site_fract_z
_atom_site_B_iso_or_equiv
_atom_site_occupancy
_atom_site_attached_hydrogens
Lu1 Lu3+ 4 c 0.72318(4) 0.25 0.49519(8) . 1. 0
Ge1 Ge4+ 4 c 0.40191(11) 0.25 0.4474(2) . 1. 0
Na1 Na1+ 4 b 0.5 0 1 . 1. 0
O1 O2- 4 c 0.3878(8) 0.25 0.7735(13) . 1. 0
O2 O2- 8 d 0.3248(5) 0.4599(10) 0.2927(9) . 1. 0
O3 O2- 4 c 0.5457(7) 0.25 0.3310(13) . 1. 0
loop_
_atom_site_aniso_label
_atom_site_aniso_type_symbol
_atom_site_aniso_U_11
_atom_site_aniso_U_22
_atom_site_aniso_U_33
_atom_site_aniso_U_12
_atom_site_aniso_U_13
_atom_site_aniso_U_23
Lu1 Lu3+ 0.0071(3) 0.0068(3) 0.0046(2) 0 0.0002(2) 0
Ge1 Ge4+ 0.0078(5) 0.0084(5) 0.0053(5) 0 0.0002(4) 0
Na1 Na1+ 0.016(2) 0.013(2) 0.010(2) 0.005(2) -0.001(2) -0.002(2)
O1 O2- 0.014(4) 0.010(4) 0.004(3) 0 0.001(3) 0
O2 O2- 0.008(2) 0.013(3) 0.007(2) 0.002(2) -0.003(2) -0.002(2)
O3 O2- 0.009(4) 0.015(4) 0.008(3) 0 0.001(3) 0
#End of TTdata_54196-ICSD