
#(C) 2019 by FIZ Karlsruhe - Leibniz Institute for Information Infrastructure.  All rights reserved.
data_5460-ICSD
_database_code_ICSD 5460
_audit_creation_date 2016-02-01
_chemical_name_systematic 'Sodium hydroxide tetrahydrate - beta'
_chemical_formula_structural 'Na (O H) (H2 O)4'
_chemical_formula_sum 'H9 Na1 O5'
_chemical_name_structure_type NaOH(H2O)4(oP60)
_exptl_crystal_density_diffrn 1.45
_cell_measurement_temperature 118.
_publ_section_title

;
Hydroxidhydrate - Phasenbeziehungen und Kristallstrukturen in den Systemen
Me4NOH-H2O und NaOH-H2O
;
loop_
_citation_id
_citation_journal_full
_citation_year
_citation_journal_volume
_citation_page_first
_citation_page_last
_citation_journal_id_ASTM
primary 'Dissertation Universitaet Duesseldorf' 1988 1988 1 125 DMY004
loop_
_publ_author_name
'Seidel, R.'
_cell_length_a 6.238(3)
_cell_length_b 6.288(3)
_cell_length_c 13.121(4)
_cell_angle_alpha 90
_cell_angle_beta 90
_cell_angle_gamma 90
_cell_volume 514.67
_cell_formula_units_Z 4
_symmetry_space_group_name_H-M 'P 21 21 21'
_symmetry_Int_Tables_number 19
_refine_ls_R_factor_all 0.029
loop_
_symmetry_equiv_pos_site_id
_symmetry_equiv_pos_as_xyz
1 '-x, y+1/2, -z+1/2'
2 'x+1/2, -y+1/2, -z'
3 '-x+1/2, -y, z+1/2'
4 'x, y, z'
loop_
_atom_type_symbol
_atom_type_oxidation_number
Na1+ 1
O2- -2
H1+ 1
O2- -2
H1+ 1
O2- -2
H1+ 1
O2- -2
H1+ 1
O2- -2
H1+ 1
loop_
_atom_site_label
_atom_site_type_symbol
_atom_site_symmetry_multiplicity
_atom_site_Wyckoff_symbol
_atom_site_fract_x
_atom_site_fract_y
_atom_site_fract_z
_atom_site_B_iso_or_equiv
_atom_site_occupancy
_atom_site_attached_hydrogens
Na1 Na1+ 4 a 0.0004(1) 0.7586(1) 0.4993(1) .0173(1) 1. 0
O1 O2- 4 a 0.2234(2) 0.6887(2) 0.2010(1) .0160(3) 1. 0
H1 H1+ 4 a 0.102(5) 0.683(6) 0.200(2) .045(8) 1. 0
O2 O2- 4 a 0.2546(3) 0.890(2) 0.3790(2) .0144(3) 1. 0
H2 H1+ 4 a 0.246(4) 0.821(4) 0.317(2) .033(6) 1. 0
H3 H1+ 4 a 0.271(7) 0.998(5) 0.360(2) .054(9) 1. 0
O3 O2- 4 a 0.2641(2) 0.5292(2) 0.0113(1) .0154(2) 1. 0
H4 H1+ 4 a 0.254(5) 0.592(4) 0.069(2) .036(7) 1. 0
H5 H1+ 4 a 0.241(5) 0.611(4) 0.956(2) .043(8) 1. 0
O4 O2- 4 a 0.2602(3) 0.9044(2) 0.6191(1) .0144(3) 1. 0
H6 H1+ 4 a 0.239(5) 0.840(5) 0.682(2) .036(7) 1. 0
H7 H1+ 4 a 0.270(7) 0.036(5) 0.639(2) .051(7) 1. 0
O5 O2- 4 a 0.1727(2) 0.6738(2) 0.8005(1) .0163(3) 1. 0
H9 H1+ 4 a 0.047(5) 0.696(5) 0.797(2) .038(8) 1. 0
H10 H1+ 4 a 0.201(5) 0.582(4) 0.766(2) .038(8) 1. 0
#End of TTdata_5460-ICSD