
#(C) 2019 by FIZ Karlsruhe - Leibniz Institute for Information Infrastructure.  All rights reserved.
data_55249-ICSD
_database_code_ICSD 55249
_audit_creation_date 2005-10-01
_audit_update_record 2012-08-01
_chemical_name_systematic
'Trisodium pentamagnesium catena-trihydroxohenicosaoxooctasilicate'
_chemical_formula_structural 'Na (Na2 Mg5) (Si8 O21 (O H)3)'
_chemical_formula_sum 'H3 Mg5 Na3 O24 Si8'
_chemical_name_mineral 'Amphibole, tripled'
_exptl_crystal_density_diffrn 2.91
_publ_section_title

;
The crystal structure of synthetic Na Na2 Mg5 Si8 O21 (O H)3, a triclinic C1-
amphibole with a triple-cell and excess hydrogen
;
loop_
_citation_id
_citation_journal_full
_citation_year
_citation_journal_volume
_citation_page_first
_citation_page_last
_citation_journal_id_ASTM
primary 'American Mineralogist' 2004 89 1464 1473 AMMIAY
loop_
_publ_author_name
'Camara, F.'
'Oberti, R.'
'della Ventura, G.'
'Welch, M.D.'
'Maresch, W.V.'
_cell_length_a 9.883(2)
_cell_length_b 54.082(9)
_cell_length_c 5.277(1)
_cell_angle_alpha 90.045(4)
_cell_angle_beta 103.068(3)
_cell_angle_gamma 89.960(4)
_cell_volume 2747.47
_cell_formula_units_Z 6
_symmetry_space_group_name_H-M 'C -1'
_symmetry_Int_Tables_number 2
_refine_ls_R_factor_all 0.076
loop_
_symmetry_equiv_pos_site_id
_symmetry_equiv_pos_as_xyz
1 '-x, -y, -z'
2 'x, y, z'
3 '-x+1/2, -y+1/2, -z'
4 'x+1/2, y+1/2, z'
loop_
_atom_type_symbol
_atom_type_oxidation_number
Si4+ 4
Mg2+ 2
Na1+ 1
O2- -2
H1+ 1
loop_
_atom_site_label
_atom_site_type_symbol
_atom_site_symmetry_multiplicity
_atom_site_Wyckoff_symbol
_atom_site_fract_x
_atom_site_fract_y
_atom_site_fract_z
_atom_site_B_iso_or_equiv
_atom_site_occupancy
_atom_site_attached_hydrogens
Si1 Si4+ 4 i 0.7257(3) 0.02996(6) 0.7205(6) 0.0138(8) 1. 0
Si2 Si4+ 4 i 0.7262(3) 0.05735(6) 0.2168(6) 0.0141(8) 1. 0
Si3 Si4+ 4 i 0.2840(3) 0.02651(6) 0.2948(6) 0.0124(8) 1. 0
Si4 Si4+ 4 i 0.2984(3) 0.05545(6) 0.8031(6) 0.0125(8) 1. 0
Si5 Si4+ 4 i 0.2237(3) 0.19411(6) 0.6891(6) 0.0103(8) 1. 0
Si6 Si4+ 4 i 0.2123(3) 0.22275(6) 0.1829(6) 0.0114(8) 1. 0
Si7 Si4+ 4 i 0.7857(3) 0.13924(6) 0.2663(6) 0.0104(8) 1. 0
Si8 Si4+ 4 i 0.7975(3) 0.11051(6) 0.7792(6) 0.0123(8) 1. 0
Si9 Si4+ 4 i 0.7816(3) 0.19566(6) 0.2634(6) 0.0098(8) 1. 0
Si10 Si4+ 4 i 0.7146(4) 0.27655(6) 0.2307(6) 0.0153(8) 1. 0
Si11 Si4+ 4 i 0.2290(3) 0.13774(6) 0.6939(6) 0.0106(8) 1. 0
Si12 Si4+ 4 i 0.2236(3) 0.10980(6) 0.1892(6) 0.0103(8) 1. 0
Mg1 Mg2+ 4 i 0.0069(4) 0.02984(8) 0.5070(8) 0.0181(11) 1. 0
Mg2 Mg2+ 4 i 0.0121(4) 0.06009(8) 0.0054(8) 0.0178(10) 1. 0
Mg3 Mg2+ 2 a 0 0 0 0.0136(14) 1. 0
Mg4 Mg2+ 4 i 0.5014(4) 0.19646(7) 0.4748(7) 0.0101(9) 1. 0
Mg5 Mg2+ 4 i 0.5082(4) 0.13723(7) 0.4792(7) 0.0115(9) 1. 0
Mg6 Mg2+ 4 i 0.4926(4) 0.22672(7) -0.0320(7) 0.0113(9) 1. 0
Mg7 Mg2+ 4 i 0.5028(4) 0.10656(8) -0.0313(8) 0.0157(10) 1. 0
Mg8 Mg2+ 4 i 0.5055(4) 0.16667(8) -0.0216(7) 0.0090(8) 1. 0
Na1 Na1+ 4 i 0.0263(6) 0.09136(11) 0.5241(11) 0.0402(15) 1. 0
Na2 Na1+ 4 i 0.4663(5) 0.25874(9) 0.4552(8) 0.0176(11) 1. 0
Na3 Na1+ 4 i 0.4738(6) 0.07400(10) 0.4547(10) 0.0412(16) 1. 0
Na4 Na1+ 2 e 0.5 0 0 0.0869(30) 1. 0
Na5 Na1+ 4 i 0.0214(6) 0.16632(15) 0.0347(13) 0.0613(20) 1. 0
O1 O2- 4 i 0.8910(8) 0.02960(15) 0.7872(15) 0.0201(20) 1. 0
O2 O2- 4 i 0.1181(7) 0.02805(14) 0.2164(14) 0.0121(18) 1. 0
O3 O2- 4 i 0.3905(7) 0.19478(14) 0.7611(14) 0.0126(18) 1. 0
O4 O2- 4 i 0.6212(7) 0.13801(13) 0.1910(14) 0.0095(18) 1. 0
O5 O2- 4 i 0.6155(7) 0.19553(14) 0.1905(14) 0.0124(18) 1. 0
O6 O2- 4 i 0.3936(7) 0.13737(14) 0.7613(14) 0.0125(18) 1. 0
O7 O2- 4 i 0.8920(8) 0.05698(14) 0.2829(15) 0.0179(20) 1. 0
O8 O2- 4 i 0.1305(8) 0.05525(14) 0.7345(15) 0.0163(19) 1. 0
O9 O2- 4 i 0.3795(7) 0.22200(14) 0.2510(14) 0.0111(18) 1. 0
O10 O2- 4 i 0.6300(8) 0.10991(15) 0.6982(15) 0.0206(21) 1. 0
O11 O2- 4 i 0.6184(8) 0.22413(14) 0.6972(14) 0.0139(18) 1. 0
O12 O2- 4 i 0.3905(7) 0.11108(13) 0.2544(13) 0.0101(18) 1. 0
O13 O2- 4 i 0.8951(9) 0.00054(15) 0.2896(16) 0.0169(21) 1. 0
O14 O2- 4 i 0.4012(8) 0.16650(14) 0.2711(14) 0.0138(19) 1. 0
O15 O2- 4 i 0.6131(8) 0.16695(14) 0.6867(15) 0.0149(19) 1. 0
O16 O2- 4 i 0.6528(7) 0.08412(13) 0.2152(14) 0.0114(18) 1. 0
O17 O2- 4 i 0.3777(8) 0.08035(14) 0.8034(15) 0.0164(19) 1. 0
O18 O2- 4 i 0.3607(8) 0.25233(15) 0.7917(15) 0.0237(21) 1. 0
O19 O2- 4 i 0.8742(8) 0.08489(15) 0.7978(16) 0.0209(20) 1. 0
O20 O2- 4 i 0.6389(8) 0.24954(15) 0.2020(15) 0.0222(21) 1. 0
O21 O2- 4 i 0.1533(8) 0.08374(14) 0.2094(14) 0.0155(19) 1. 0
O22 O2- 4 i 0.6617(8) 0.04459(15) 0.9383(15) 0.0258(21) 1. 0
O23 O2- 4 i 0.3562(8) 0.04030(15) 0.0887(15) 0.0247(21) 1. 0
O24 O2- 4 i 0.3458(7) 0.29010(13) 0.1121(13) 0.0081(16) 1. 0
O25 O2- 4 i 0.8537(7) 0.12711(12) 0.0404(12) 0.0067(16) 1. 0
O26 O2- 4 i 0.8474(7) 0.20763(13) 0.0352(13) 0.0142(18) 1. 0
O27 O2- 4 i 0.1610(7) 0.12182(13) 0.8972(13) 0.0086(16) 1. 0
O28 O2- 4 i 0.6649(8) 0.04161(15) 0.4330(15) 0.0236(20) 1. 0
O29 O2- 4 i 0.3485(8) 0.03643(15) 0.5894(15) 0.0237(20) 1. 0
O30 O2- 4 i 0.1616(7) 0.20230(13) 0.3912(13) 0.0087(16) 1. 0
O31 O2- 4 i 0.8492(8) 0.12565(15) 0.5402(15) 0.0211(19) 1. 0
O32 O2- 4 i 0.6545(7) 0.29069(13) 0.4615(13) 0.0120(17) 1. 0
O33 O2- 4 i 0.1669(7) 0.12881(14) 0.3937(14) 0.0171(18) 1. 0
O34 O2- 4 i 0.3388(7) -.00203(14) 0.2863(14) 0.0130(18) 1. 0
O35 O2- 4 i 0.1672(8) 0.16558(14) 0.7118(14) 0.0166(19) 1. 0
O36 O2- 4 i 0.8450(8) 0.16755(15) 0.2891(15) 0.0209(20) 1. 0
H1 H1+ 4 i 0.8088 0.00306 0.2645 0.001(25) 1. 0
H2 H1+ 4 i 0.3002 0.16791 0.2525 0.045(40) 1. 0
H3 H1+ 4 i 0.7182 0.1675 0.7383 0.029(34) 1. 0
H4 H1+ 4 i 0.7 0.243 0.38 . 0.5 0
H5 H1+ 4 i 0.695 0.095 0.39 . 0.5 0
H6 H1+ 4 i 0.815 0.075 0.61 . 0.5 0
loop_
_atom_site_aniso_label
_atom_site_aniso_type_symbol
_atom_site_aniso_U_11
_atom_site_aniso_U_22
_atom_site_aniso_U_33
_atom_site_aniso_U_12
_atom_site_aniso_U_13
_atom_site_aniso_U_23
Si1 Si4+ 0.0113(18) 0.0103(20) 0.0158(18) -.0027(14) -.0057(14) 0.0059(14)
Si2 Si4+ 0.0117(18) 0.0128(20) 0.0158(18) -.0038(14) -.0009(14) -.0004(14)
Si3 Si4+ 0.0091(18) 0.0091(19) 0.0144(18) 0.0013(14) -.0070(14) -.0009(14)
Si4 Si4+ 0.0088(17) 0.0106(19) 0.0145(17) -.0028(14) -.0052(13) -.0018(14)
Si5 Si4+ 0.0154(19) 0.0091(18) 0.0045(16) 0.0025(14) -.0018(14) -.0044(13)
Si6 Si4+ 0.0167(19) 0.0099(19) 0.0038(16) 0.0031(14) -.0059(13) -.0023(13)
Si7 Si4+ 0.0110(17) 0.0165(20) 0.0037(16) -.0012(14) 0.0015(13) 0.0054(13)
Si8 Si4+ 0.0155(19) 0.0127(19) 0.0079(17) 0.0018(15) 0.0011(14) 0.0047(14)
Si9 Si4+ 0.0148(19) 0.0127(19) 0.0014(15) 0.0009(14) 0.0007(13) 0.0024(13)
Si10 Si4+ 0.0286(21) 0.0083(19) 0.0082(17) -.0006(15) 0.0027(15) 0.0000(13)
Si11 Si4+ 0.0082(17) 0.0132(20) 0.0095(17) 0.0015(14) 0.0003(13) -.0023(14)
Si12 Si4+ 0.0083(17) 0.0156(20) 0.0082(17) -.0039(14) 0.0046(13) -.0011(13)
Mg1 Mg2+ 0.0142(23) 0.0160(25) 0.0204(25) -.0001(19) -.0037(19) 0.0003(19)
Mg2 Mg2+ 0.0157(23) 0.0136(24) 0.0234(25) 0.0041(18) 0.0030(19) 0.0024(19)
Mg3 Mg2+ 0.0150(32) 0.0139(35) 0.0067(30) 0.0078(26) -.0073(24) 0.0004(25)
Mg4 Mg2+ 0.0139(22) 0.0119(23) 0.0024(19) 0.0037(18) -.0027(16) -.0012(16)
Mg5 Mg2+ 0.0150(22) 0.0128(23) 0.0070(20) -.0002(18) 0.0031(17) 0.0001(17)
Mg6 Mg2+ 0.0111(21) 0.0158(24) 0.0044(20) -.0027(17) -.0039(16) 0.0036(16)
Mg7 Mg2+ 0.0172(23) 0.0163(24) 0.0154(22) -.0015(18) 0.0080(18) -.0035(18)
Mg8 Mg2+ 0.0118(19) 0.0111(20) 0.0029(19) -.0044(15) -.0007(15) 0.0007(15)
Na1 Na1+ 0.0462(37) 0.0400(37) 0.0403(36) -.0094(30) 0.0220(29) -.0150(28)
Na2 Na1+ 0.0170(25) 0.0198(27) 0.0125(24) 0.0007(20) -.0039(19) 0.0010(19)
Na3 Na1+ 0.0787(45) 0.0265(34) 0.0288(31) 0.0169(31) 0.0338(31) 0.0123(25)
Na4 Na1+ 0.0510(64) 0.150(12) 0.0712(73) 0.0226(68) 0.0376(56) 0.0094(71)
Na5 Na1+ 0.0293(36) 0.1061(57) 0.0547(41) -.0126(36) 0.0224(31) 0.0017(37)
#End of TTdata_55249-ICSD