
#(C) 2019 by FIZ Karlsruhe - Leibniz Institute for Information Infrastructure.  All rights reserved.
data_55274-ICSD
_database_code_ICSD 55274
_audit_creation_date 2005-10-01
_audit_update_record 2008-08-01
_chemical_name_systematic
'Disodium hexamagnesium dihydroxodocosaoxooctasilicate'
_chemical_formula_structural 'Na (Na Mg) Mg5 (Si8 O22 (O H)2)'
_chemical_formula_sum 'H2 Mg6 Na2 O24 Si8'
_chemical_name_structure_type Amphibole#-(MO,P121/m1)
_chemical_name_mineral 'Richterite, Ca-free'
_exptl_crystal_density_diffrn 2.98
_publ_section_title

;
Synthesis and crystal-chemistry of Na (Na Mg) Mg5 Si8 O22 (O H)2, a P21/m
amphibole
;
loop_
_citation_id
_citation_journal_full
_citation_year
_citation_journal_volume
_citation_page_first
_citation_page_last
_citation_journal_id_ASTM
primary 'American Mineralogist' 2004 89 640 646 AMMIAY
loop_
_publ_author_name
'Iezzi, G.'
'della Ventura, G.'
'Oberti, R.'
'Camara, F.'
'Holtz, F.'
_cell_length_a 9.689(1)
_cell_length_b 17.938(2)
_cell_length_c 5.268(5)
_cell_angle_alpha 90
_cell_angle_beta 102.50(3)
_cell_angle_gamma 90
_cell_volume 893.88
_cell_formula_units_Z 2
_symmetry_space_group_name_H-M 'P 1 21/m 1'
_symmetry_Int_Tables_number 11
_refine_ls_R_factor_all 0.041
loop_
_symmetry_equiv_pos_site_id
_symmetry_equiv_pos_as_xyz
1 'x, -y+1/2, z'
2 '-x, -y, -z'
3 '-x, y+1/2, -z'
4 'x, y, z'
loop_
_atom_type_symbol
_atom_type_oxidation_number
O2- -2
Si4+ 4
Mg2+ 2
Na1+ 1
H1+ 1
loop_
_atom_site_label
_atom_site_type_symbol
_atom_site_symmetry_multiplicity
_atom_site_Wyckoff_symbol
_atom_site_fract_x
_atom_site_fract_y
_atom_site_fract_z
_atom_site_B_iso_or_equiv
_atom_site_occupancy
_atom_site_attached_hydrogens
O1 O2- 4 f 0.8631(3) 0.3368(2) 0.1973(5) 0.58 1. 0
O2 O2- 4 f 0.3629(3) 0.8366(1) 0.2255(5) 0.57 1. 0
O3 O2- 4 f 0.8698(3) 0.4217(2) 0.7018(5) 0.77 1. 0
O4 O2- 4 f 0.3734(3) 0.9219(1) 0.7355(5) 0.72 1. 0
O5 O2- 2 e 0.8606(4) 0.25 0.6943(7) 0.68 1. 0
O6 O2- 2 e 0.3577(4) 0.75 0.7221(8) 0.72 1. 0
O7 O2- 4 f 0.1199(4) 0.4993(2) 0.7959(6) 1.16 1. 0
O8 O2- 4 f 0.6258(4) 0.9938(2) 0.7658(7) 1.8 1. 0
O9 O2- 4 f 0.0969(3) 0.3674(2) 0.0237(5) 1. 1. 0
O10 O2- 4 f 0.6002(3) 0.8854(2) 0.0969(5) 0.97 1. 0
O11 O2- 4 f 0.0994(3) 0.3800(2) 0.5277(5) 1.07 1. 0
O12 O2- 4 f 0.5934(3) 0.8578(2) 0.5964(5) 1.07 1. 0
O13 O2- 2 e 0.0921(4) 0.25 0.2998(8) 0.94 1. 0
O14 O2- 2 e 0.5905(4) 0.75 0.2613(8) 0.83 1. 0
Si1 Si4+ 4 f 0.0324(1) 0.3355(1) 0.2619(2) 0.54 1. 0
Si2 Si4+ 4 f 0.5321(1) 0.8346(1) 0.2949(2) 0.52 1. 0
Si3 Si4+ 4 f 0.0408(1) 0.4214(1) 0.7677(2) 0.53 1. 0
Si4 Si4+ 4 f 0.5439(1) 0.9195(1) 0.7989(2) 0.67 1. 0
Mg1 Mg2+ 4 f 0.7501(2) 0.3382(1) 0.4850(3) 0.65 1. 0
Mg2 Mg2+ 4 f 0.7497(2) 0.4295(1) 0.9842(3) 0.66 1. 0
Mg3 Mg2+ 2 e 0.7506(2) 0.25 0.9859(4) 0.62 1. 0
Mg4 Mg2+ 4 f 0.7539(3) 0.5054(1) 0.4840(5) 0.84 0.5 0
Na1 Na1+ 2 e 0.2654(5) 0.25 0.0462(11) 3.56 1. 0
Na2 Na1+ 4 f 0.7408(4) 0.5202(2) 0.4772(7) 1.17 0.5 0
H1 H1+ 2 e -0.053(10) 0.25 0.751(19) 3.28 1. 0
H2 H1+ 2 e 0.566(9) 0.25 0.241(17) 1.87 1. 0
loop_
_atom_site_aniso_label
_atom_site_aniso_type_symbol
_atom_site_aniso_beta_11
_atom_site_aniso_beta_22
_atom_site_aniso_beta_33
_atom_site_aniso_beta_12
_atom_site_aniso_beta_13
_atom_site_aniso_beta_23
O1 O2- 0.0017(2) 0.0003(1) 0.0069(8) 0.0002(1) 0.0011(3) -.0002(2)
O2 O2- 0.0021(2) 0.0004(1) 0.0047(8) -.0003(1) 0.0010(3) 0.0001(2)
O3 O2- 0.0019(2) 0.0008(1) 0.0061(8) 0.0000(1) 0.0010(3) -.0003(2)
O4 O2- 0.0019(2) 0.0005(1) 0.0085(8) -.0001(1) 0.0014(3) -.0002(2)
O5 O2- 0.0021(4) 0.0005(1) 0.0064(11) 0. 0.0008(5) 0.
O6 O2- 0.0019(4) 0.0004(1) 0.0089(12) 0. 0.0010(5) 0.
O7 O2- 0.0046(3) 0.0005(1) 0.0099(10) -.0007(1) -.0005(4) -.0002(2)
O8 O2- 0.0060(4) 0.0008(1) 0.0159(12) -.0019(1) -.0034(5) 0.0021(2)
O9 O2- 0.0025(3) 0.0009(1) 0.0092(9) 0.0002(1) 0.0015(3) 0.0012(2)
O10 O2- 0.0022(3) 0.0010(1) 0.0085(9) 0.0000(1) 0.0011(3) 0.0013(2)
O11 O2- 0.0025(3) 0.0010(1) 0.0092(9) 0.0004(1) 0.0006(4) -.0018(2)
O12 O2- 0.0022(2) 0.0011(1) 0.0087(9) 0.0001(1) 0.0006(3) -.0011(2)
O13 O2- 0.0017(3) 0.0005(1) 0.0156(14) 0. 0.0016(5) 0.
O14 O2- 0.0023(4) 0.0002(1) 0.0139(13) 0. 0.0021(5) 0.
Si1 Si4+ 0.0017(1) 0.0003(1) 0.0052(3) 0.0000(1) 0.0007(1) 0.0000(1)
Si2 Si4+ 0.0017(1) 0.0004(1) 0.0047(3) 0.0000(1) 0.0009(1) 0.0001(1)
Si3 Si4+ 0.0017(1) 0.0003(1) 0.0053(3) -.0001(1) 0.0007(1) 0.0000(1)
Si4 Si4+ 0.0021(1) 0.0005(1) 0.0056(3) -.0003(1) 0.0006(1) 0.0001(1)
Mg1 Mg2+ 0.0022(1) 0.0004(1) 0.0064(4) 0.0000(1) 0.0011(2) -.0001(1)
Mg2 Mg2+ 0.0021(1) 0.0004(1) 0.0070(4) 0.0000(1) 0.0013(2) 0.0002(1)
Mg3 Mg2+ 0.0023(1) 0.0004(1) 0.0053(5) 0. 0.0011(2) 0.
Mg4 Mg2+ 0.0026(2) 0.0006(1) 0.0091(9) 0.0001(1) 0.0028(3) 0.0005(2)
Na1 Na1+ 0.0063(5) 0.0038(2) 0.0413(24) 0. 0.0130(9) 0.
#End of TTdata_55274-ICSD