
#(C) 2019 by FIZ Karlsruhe - Leibniz Institute for Information Infrastructure.  All rights reserved.
data_55673-ICSD
_database_code_ICSD 55673
_audit_creation_date 2005-10-01
_audit_update_record 2012-02-01
_chemical_name_systematic 'Sodium cobalt oxide (0.5/1/2)'
_chemical_formula_structural 'Na0.5 Co O2'
_chemical_formula_sum 'Co1 Na0.5 O2'
_chemical_name_structure_type Na.5CoO2
_exptl_crystal_density_diffrn 4.45
_cell_measurement_temperature 295.
_publ_section_title
'Low temperature phase transitions and crystal structure of Na0.5 Co O2'
loop_
_citation_id
_citation_journal_full
_citation_year
_citation_journal_volume
_citation_page_first
_citation_page_last
_citation_journal_id_ASTM
primary 'Journal of Physics: Condensed Matter' 2004 16 5803 5814 JCOMEL
loop_
_publ_author_name
'Huang, Q.'
'Foo, M.L.'
'Lynn, J.W.'
'Zandbergen, H.W.'
'Lawes, G.'
'Wang Yayu'
'Toby, B.H.'
'Ramirez, A.P.'
'Ong, N.P.'
'Cava, R.J.'
_cell_length_a 4.87618(5)
_cell_length_b 5.63053(9)
_cell_length_c 11.1298(2)
_cell_angle_alpha 90.
_cell_angle_beta 90.
_cell_angle_gamma 90.
_cell_volume 305.57
_cell_formula_units_Z 8
_symmetry_space_group_name_H-M 'P n m m Z'
_symmetry_Int_Tables_number 59
_refine_ls_R_factor_all 0.0313
loop_
_symmetry_equiv_pos_site_id
_symmetry_equiv_pos_as_xyz
1 '-x, y+1/2, z+1/2'
2 '-x, y+1/2, -z'
3 '-x, -y, z+1/2'
4 '-x, -y, -z'
5 'x, -y+1/2, -z+1/2'
6 'x, -y+1/2, z'
7 'x, y, -z+1/2'
8 'x, y, z'
loop_
_atom_type_symbol
_atom_type_oxidation_number
Co3+ 3.5
Na1+ 1
O2- -2
loop_
_atom_site_label
_atom_site_type_symbol
_atom_site_symmetry_multiplicity
_atom_site_Wyckoff_symbol
_atom_site_fract_x
_atom_site_fract_y
_atom_site_fract_z
_atom_site_B_iso_or_equiv
_atom_site_occupancy
_atom_site_attached_hydrogens
Co1 Co3+ 4 e 0 0.25 0 0.49(3) 1. 0
Co2 Co3+ 4 d 0.5 0 0 0.49(3) 1. 0
Na1 Na1+ 2 b -0.027(2) 0.25 0.75 1.7(1) 1. 0
Na2 Na1+ 2 a 0.361(2) 0.75 0.75 1.7(1) 1. 0
O1 O2- 4 e 0.3333 0.25 0.0894(1) 0.51(1) 1. 0
O2 O2- 4 e 0.3333 0.75 0.0816(3) 0.51(1) 1. 0
O3 O2- 8 g -0.1667 0 0.0894(1) 0.51(1) 1. 0
#End of TTdata_55673-ICSD