
#(C) 2019 by FIZ Karlsruhe - Leibniz Institute for Information Infrastructure.  All rights reserved.
data_55698-ICSD
_database_code_ICSD 55698
_audit_creation_date 2005-10-01
_chemical_name_systematic 'Dicesium sodium hexafluorogallate'
_chemical_formula_structural 'Cs2 Na (Ga F6)'
_chemical_formula_sum 'Cs2 F6 Ga1 Na1'
_chemical_name_structure_type Ba2NiTeO6
_exptl_crystal_density_diffrn 4.58
_publ_section_title

;
The effect of the cation substitution on the structural and vibrational
properties of Cs2 Na Gax Sc1-x F6 solid solution
;
loop_
_citation_id
_citation_journal_full
_citation_year
_citation_journal_volume
_citation_page_first
_citation_page_last
_citation_journal_id_ASTM
primary 'Journal of Chemical Physics' 2004 121 3184 3190 JCPSA6
loop_
_publ_author_name
'Doriguetto, A.C.'
'Boschi, T.M.'
'Pizani, P.S.'
'Mascarenhas, Y.P.'
'Ellena, J.'
_cell_length_a 6.2570(4)
_cell_length_b 6.2570(4)
_cell_length_c 30.301(2)
_cell_angle_alpha 90.
_cell_angle_beta 90.
_cell_angle_gamma 120.
_cell_volume 1027.35
_cell_formula_units_Z 6
_symmetry_space_group_name_H-M 'R -3 m H'
_symmetry_Int_Tables_number 166
_refine_ls_R_factor_all 0.0202
loop_
_symmetry_equiv_pos_site_id
_symmetry_equiv_pos_as_xyz
1 'x-y, -y, -z'
2 '-x, -x+y, -z'
3 'y, x, -z'
4 'x-y, x, -z'
5 'y, -x+y, -z'
6 '-x, -y, -z'
7 '-x+y, y, z'
8 'x, x-y, z'
9 '-y, -x, z'
10 '-x+y, -x, z'
11 '-y, x-y, z'
12 'x, y, z'
13 'x-y+2/3, -y+1/3, -z+1/3'
14 '-x+2/3, -x+y+1/3, -z+1/3'
15 'y+2/3, x+1/3, -z+1/3'
16 'x-y+2/3, x+1/3, -z+1/3'
17 'y+2/3, -x+y+1/3, -z+1/3'
18 '-x+2/3, -y+1/3, -z+1/3'
19 '-x+y+2/3, y+1/3, z+1/3'
20 'x+2/3, x-y+1/3, z+1/3'
21 '-y+2/3, -x+1/3, z+1/3'
22 '-x+y+2/3, -x+1/3, z+1/3'
23 '-y+2/3, x-y+1/3, z+1/3'
24 'x+2/3, y+1/3, z+1/3'
25 'x-y+1/3, -y+2/3, -z+2/3'
26 '-x+1/3, -x+y+2/3, -z+2/3'
27 'y+1/3, x+2/3, -z+2/3'
28 'x-y+1/3, x+2/3, -z+2/3'
29 'y+1/3, -x+y+2/3, -z+2/3'
30 '-x+1/3, -y+2/3, -z+2/3'
31 '-x+y+1/3, y+2/3, z+2/3'
32 'x+1/3, x-y+2/3, z+2/3'
33 '-y+1/3, -x+2/3, z+2/3'
34 '-x+y+1/3, -x+2/3, z+2/3'
35 '-y+1/3, x-y+2/3, z+2/3'
36 'x+1/3, y+2/3, z+2/3'
loop_
_atom_type_symbol
_atom_type_oxidation_number
Cs1+ 1
Na1+ 1
Ga3+ 3
F1- -1
loop_
_atom_site_label
_atom_site_type_symbol
_atom_site_symmetry_multiplicity
_atom_site_Wyckoff_symbol
_atom_site_fract_x
_atom_site_fract_y
_atom_site_fract_z
_atom_site_B_iso_or_equiv
_atom_site_occupancy
_atom_site_attached_hydrogens
Cs1 Cs1+ 6 c 0 0 0.128(1) 0.022(1) 1. 0
Cs2 Cs1+ 6 c 0 0 0.2808(1) 0.024(1) 1. 0
Na1 Na1+ 6 c 0 0 0.4022(1) 0.020(1) 1. 0
Ga1 Ga3+ 3 a 0 0 0 0.015(1) 1. 0
Ga2 Ga3+ 3 b 0 0 0.5 0.017(1) 1. 0
F1 F1- 18 h 0.1404(3) -0.1404(3) 0.4622(1) 0.025(1) 1. 0
F2 F1- 18 h 0.1884(3) -0.1884(3) 0.6311(1) 0.025(1) 1. 0
#End of TTdata_55698-ICSD