
#(C) 2019 by FIZ Karlsruhe - Leibniz Institute for Information Infrastructure.  All rights reserved.
data_56498-ICSD
_database_code_ICSD 56498
_audit_creation_date 2003-04-01
_chemical_name_systematic
'Octasodium tecto-hexaalumohexagermanate bis(nitrate(V))'
_chemical_formula_structural 'Na8 (Al6 Ge6 O24) (N O3)2'
_chemical_formula_sum 'Al6 Ge6 N2 Na8 O30'
_chemical_name_structure_type Sodalite-frame
_chemical_name_mineral 'Germanium-Sodalite (nitrate-bearing)'
_exptl_crystal_density_diffrn 2.81
_cell_measurement_temperature 295.
_publ_section_title

;
Synthese und Struktur von Alumogermanat-Nitratsodalith Na7.8 (Al Si O4)6 (N
O3)1.8 * 1.0 H2 O
;
loop_
_citation_id
_citation_journal_full
_citation_year
_citation_journal_volume
_citation_page_first
_citation_page_last
_citation_journal_id_ASTM
primary 'Zeitschrift fuer Kristallographie, Supplement Issue' 1996 11 74 74
ZKSUP2
loop_
_publ_author_name
'Bachmann, S.'
'Gesing, T.M.'
'Buhl, J.C.'
_cell_length_a 9.1322(1)
_cell_length_b 9.1322
_cell_length_c 9.1322
_cell_angle_alpha 90.
_cell_angle_beta 90.
_cell_angle_gamma 90.
_cell_volume 761.6
_cell_formula_units_Z 1
_symmetry_space_group_name_H-M 'P -4 3 n'
_symmetry_Int_Tables_number 218
_refine_ls_R_factor_all 0.061
loop_
_symmetry_equiv_pos_site_id
_symmetry_equiv_pos_as_xyz
1 '-z+1/2, y+1/2, -x+1/2'
2 '-y+1/2, x+1/2, -z+1/2'
3 '-x+1/2, z+1/2, -y+1/2'
4 'z+1/2, -y+1/2, -x+1/2'
5 'y+1/2, -x+1/2, -z+1/2'
6 'x+1/2, -z+1/2, -y+1/2'
7 '-z+1/2, -y+1/2, x+1/2'
8 '-y+1/2, -x+1/2, z+1/2'
9 '-x+1/2, -z+1/2, y+1/2'
10 'z+1/2, y+1/2, x+1/2'
11 'y+1/2, x+1/2, z+1/2'
12 'x+1/2, z+1/2, y+1/2'
13 '-z, -x, y'
14 '-y, -z, x'
15 '-x, -y, z'
16 'z, -x, -y'
17 'y, -z, -x'
18 'x, -y, -z'
19 '-z, x, -y'
20 '-y, z, -x'
21 '-x, y, -z'
22 'z, x, y'
23 'y, z, x'
24 'x, y, z'
loop_
_atom_type_symbol
_atom_type_oxidation_number
Ge4+ 4
Al3+ 3
O2- -2
Na1+ 1
N5+ 5
O2- -2
loop_
_atom_site_label
_atom_site_type_symbol
_atom_site_symmetry_multiplicity
_atom_site_Wyckoff_symbol
_atom_site_fract_x
_atom_site_fract_y
_atom_site_fract_z
_atom_site_B_iso_or_equiv
_atom_site_occupancy
_atom_site_attached_hydrogens
Ge1 Ge4+ 6 d 0.25 0 0.5 0.1(1) 1. 0
Al1 Al3+ 6 c 0.25 0.5 0 0.1(1) 1. 0
O1 O2- 24 i 0.148(1) 0.432(1) 0.144(1) 0.6(3) 1. 0
Na1 Na1+ 8 e 0.1851(9) 0.1851 0.1851 1.7(5) 1. 0
N1 N5+ 2 a 0 0 0 3.(1) 1. 0
O21 O2- 24 i 0.9843 0.875 0.9526 3.(1) 0.084 0
O22 O2- 24 i 0.9441 0.0595 0.1121 3.(1) 0.084 0
O23 O2- 24 i 0.1427 0.0346 0.9616 3.(1) 0.084 0
#End of TTdata_56498-ICSD