
#(C) 2019 by FIZ Karlsruhe - Leibniz Institute for Information Infrastructure.  All rights reserved.
data_56865-ICSD
_database_code_ICSD 56865
_audit_creation_date 2003-04-01
_audit_update_record 2015-02-01
_chemical_name_systematic 'Trisodium discandium tris(phosphate(V)) - alpha'
_chemical_formula_structural 'Na3 Sc2 (P O4)3'
_chemical_formula_sum 'Na3 O12 P3 Sc2'
_chemical_name_structure_type 'Nasicon low'
_chemical_name_mineral 'Nasicon low, scandian'
_exptl_crystal_density_diffrn 2.83
_publ_section_title

;
Disorder of tetrahedra in Nasicon-type structure - part I. Na3 Sc2 (P O4)3:
structures and ion-ion correlations
;
loop_
_citation_id
_citation_journal_full
_citation_year
_citation_journal_volume
_citation_page_first
_citation_page_last
_citation_journal_id_ASTM
primary 'Journal of Physics and Chemistry of Solids' 1986 47 843 854 JPCSAW
loop_
_publ_author_name
'Collin, G.'
'Comes, R.'
'Boilot, J.P.'
'Colomban, P.'
_cell_length_a 15.404(4)
_cell_length_b 9.103(3)
_cell_length_c 8.919(2)
_cell_angle_alpha 90.
_cell_angle_beta 90.
_cell_angle_gamma 123.53
_cell_volume 1042.53
_cell_formula_units_Z 4
_symmetry_space_group_name_H-M 'B 1 1 2/b'
_symmetry_Int_Tables_number 15
loop_
_symmetry_equiv_pos_site_id
_symmetry_equiv_pos_as_xyz
1 'x, y+1/2, -z'
2 '-x, -y, -z'
3 '-x, -y+1/2, z'
4 'x, y, z'
5 'x+1/2, y+1/2, -z+1/2'
6 '-x+1/2, -y, -z+1/2'
7 '-x+1/2, -y+1/2, z+1/2'
8 'x+1/2, y, z+1/2'
loop_
_atom_type_symbol
_atom_type_oxidation_number
Na1+ 1
P5+ 5
Sc3+ 3
O2- -2
loop_
_atom_site_label
_atom_site_type_symbol
_atom_site_symmetry_multiplicity
_atom_site_Wyckoff_symbol
_atom_site_fract_x
_atom_site_fract_y
_atom_site_fract_z
_atom_site_B_iso_or_equiv
_atom_site_occupancy
_atom_site_attached_hydrogens
Na1 Na1+ 8 f 0.1944(5) 0.5577(10) 0.1513(6) 0.0504(35) 0.5 0
Na2 Na1+ 4 e 0 0.25 0.3907(3) 0.0353(30) 1. 0
Na3 Na1+ 8 f 0.3286(5) 0.309(1) 0.4251(4) 0.0331(30) 0.5 0
P1 P5+ 8 f 0.3576(4) 0.2600(8) 0.1084(2) 0.0103(5) 1. 0
P2 P5+ 4 e 0 0.25 0.0453(1) 0.0104(10) 1. 0
Sc1 Sc3+ 8 f 0.0995(4) 0.0514(8) 0.2492(1) 0.0082(3) 1. 0
O1 O2- 8 f 0.1467(6) 0.2185(11) 0.4380(6) 0.0136(14) 1. 0
O2 O2- 8 f 0.4519(6) 0.0850(11) 0.4493(6) 0.0141(15) 1. 0
O3 O2- 8 f 0.2542(6) 0.2092(11) 0.1793(6) 0.0180(15) 1. 0
O4 O2- 8 f 0.3801(7) 0.1189(12) 0.1309(7) 0.0245(18) 1. 0
O5 O2- 8 f 0.4438(6) 0.4353(12) 0.1803(6) 0.0149(17) 1. 0
O6 O2- 8 f 0.0778(6) 0.2396(11) 0.1457(6) 0.0169(15) 1. 0
#End of TTdata_56865-ICSD