
#(C) 2019 by FIZ Karlsruhe - Leibniz Institute for Information Infrastructure.  All rights reserved.
data_56962-ICSD
_database_code_ICSD 56962
_audit_creation_date 2003-10-01
_chemical_name_systematic 'Disodium calcium phosphate(V) fluoride'
_chemical_formula_structural 'Na2 Ca (P O4) F'
_chemical_formula_sum 'Ca1 F1 Na2 O4 P1'
_exptl_crystal_density_diffrn 2.89
_publ_section_title

;
Modular approach in solving the crystal structure of a synthetic dimorph of
nacaphite, Na2 Ca (P O4) F, from powder-diffraction data
;
loop_
_citation_id
_citation_journal_full
_citation_year
_citation_journal_volume
_citation_page_first
_citation_page_last
_citation_journal_id_ASTM
primary 'Canadian Mineralogist' 1999 37 83 90 CAMIA6
loop_
_publ_author_name
'Sokolova, E.V.'
'Kabalov, Yu.K.'
'Ferraris, G.'
'Schneider, J.'
'Khomyakov, A.P.'
_cell_length_a 7.0179(7)
_cell_length_b 7.0179
_cell_length_c 40.46(4)
_cell_angle_alpha 90.
_cell_angle_beta 90.
_cell_angle_gamma 120.
_cell_volume 1725.72
_cell_formula_units_Z 15
_symmetry_space_group_name_H-M 'R 3 m H'
_symmetry_Int_Tables_number 160
_refine_ls_R_factor_all 0.027
loop_
_symmetry_equiv_pos_site_id
_symmetry_equiv_pos_as_xyz
1 '-x+y, y, z'
2 'x, x-y, z'
3 '-y, -x, z'
4 '-x+y, -x, z'
5 '-y, x-y, z'
6 'x, y, z'
7 '-x+y+2/3, y+1/3, z+1/3'
8 'x+2/3, x-y+1/3, z+1/3'
9 '-y+2/3, -x+1/3, z+1/3'
10 '-x+y+2/3, -x+1/3, z+1/3'
11 '-y+2/3, x-y+1/3, z+1/3'
12 'x+2/3, y+1/3, z+1/3'
13 '-x+y+1/3, y+2/3, z+2/3'
14 'x+1/3, x-y+2/3, z+2/3'
15 '-y+1/3, -x+2/3, z+2/3'
16 '-x+y+1/3, -x+2/3, z+2/3'
17 '-y+1/3, x-y+2/3, z+2/3'
18 'x+1/3, y+2/3, z+2/3'
loop_
_atom_type_symbol
_atom_type_oxidation_number
Ca2+ 2
Na1+ 1
P5+ 5
O2- -2
F1- -1
loop_
_atom_site_label
_atom_site_type_symbol
_atom_site_symmetry_multiplicity
_atom_site_Wyckoff_symbol
_atom_site_fract_x
_atom_site_fract_y
_atom_site_fract_z
_atom_site_B_iso_or_equiv
_atom_site_occupancy
_atom_site_attached_hydrogens
Ca1 Ca2+ 9 b 0.171 -.171 0.27 1.5 0.33 0
Ca2 Ca2+ 9 b 0.17 -.17 0.131 1.5 0.33 0
Ca3 Ca2+ 9 b 0.162 -.162 0.4 1.5 0.33 0
Ca4 Ca2+ 9 b 0.158 -.158 0.536 1.5 0.33 0
Ca5 Ca2+ 9 b 0.16 -.16 0.673 1.5 0.33 0
Na1 Na1+ 9 b 0.171 -.171 0.27 1.5 0.67 0
Na2 Na1+ 9 b 0.17 -.17 0.131 1.5 0.67 0
Na3 Na1+ 9 b 0.162 -.162 0.4 1.5 0.67 0
Na4 Na1+ 9 b 0.158 -.158 0.536 1.5 0.67 0
Na5 Na1+ 9 b 0.16 -.16 0.673 1.5 0.67 0
P1 P5+ 3 a 0 0 0.195 1.2 1. 0
P2 P5+ 3 a 0 0 0.938 1.2 1. 0
P3 P5+ 3 a 0 0 0.327 1.1 1. 0
P4 P5+ 3 a 0 0 0.805 1.2 1. 0
P5 P5+ 3 a 0 0 0.069 1.1 1. 0
O1 O2- 3 a 0 0 0.159 2. 1. 0
O2 O2- 3 a 0 0 0.289 1. 1. 0
O3 O2- 3 a 0 0 0.031 2.1 1. 0
O4 O2- 3 a 0 0 0.767 3.9 1. 0
O5 O2- 3 a 0 0 0.9 2.2 1. 0
O6 O2- 9 b 0.116 -.116 0.209 1.2 1. 0
O7 O2- 9 b 0.541 -.541 0.284 1.3 1. 0
O8 O2- 9 b 0.543 -.543 0.149 1.8 1. 0
O9 O2- 9 b 0.119 -.119 0.345 1.2 1. 0
O10 O2- 9 b -.118 0.118 0.083 2. 1. 0
F1 F1- 3 a 0 0 0.423 1.4 1. 0
F2 F1- 3 a 0 0 0.569 1.2 1. 0
F3 F1- 3 a 0 0 0.647 2.2 1. 0
F4 F1- 3 a 0 0 0.704 1.4 1. 0
F5 F1- 3 a 0 0 0.495 1.4 1. 0
#End of TTdata_56962-ICSD