
#(C) 2019 by FIZ Karlsruhe - Leibniz Institute for Information Infrastructure.  All rights reserved.
data_59304-ICSD
_database_code_ICSD 59304
_audit_creation_date 1999-01-19
_chemical_name_systematic 'Sodium indium disarenate(V)'
_chemical_formula_structural 'Na In (As2 O7)'
_chemical_formula_sum 'As2 In1 Na1 O7'
_exptl_crystal_density_diffrn 4.6
_publ_section_title 'Na In As2 O7'
loop_
_citation_id
_citation_journal_full
_citation_year
_citation_journal_volume
_citation_page_first
_citation_page_last
_citation_journal_id_ASTM
primary 'Acta Crystallographica, Section C: Crystal Structure Communications'
1997 53 5 7 ACSCEE
loop_
_publ_author_name
'Belam, W.'
'Driss, A.'
'Jouini, T.'
_cell_length_a 10.241(4)
_cell_length_b 8.649(3)
_cell_length_c 13.848(5)
_cell_angle_alpha 90.
_cell_angle_beta 109.93(3)
_cell_angle_gamma 90.
_cell_volume 1153.12
_cell_formula_units_Z 8
_symmetry_space_group_name_H-M 'C 1 2/c 1'
_symmetry_Int_Tables_number 15
_refine_ls_R_factor_all 0.0377
loop_
_symmetry_equiv_pos_site_id
_symmetry_equiv_pos_as_xyz
1 'x, -y, z+1/2'
2 '-x, -y, -z'
3 '-x, y, -z+1/2'
4 'x, y, z'
5 'x+1/2, -y+1/2, z+1/2'
6 '-x+1/2, -y+1/2, -z'
7 '-x+1/2, y+1/2, -z+1/2'
8 'x+1/2, y+1/2, z'
loop_
_atom_type_symbol
_atom_type_oxidation_number
As5+ 5
In3+ 3
Na1+ 1
O2- -2
loop_
_atom_site_label
_atom_site_type_symbol
_atom_site_symmetry_multiplicity
_atom_site_Wyckoff_symbol
_atom_site_fract_x
_atom_site_fract_y
_atom_site_fract_z
_atom_site_B_iso_or_equiv
_atom_site_occupancy
_atom_site_attached_hydrogens
As1 As5+ 8 f 0.33190(11) 0.57944(13) 0.13403(9) . 1. 0
As2 As5+ 8 f 0.12312(11) 0.45795(14) -.07648(9) . 1. 0
In1 In3+ 8 f 0.13978(9) 0.26712(11) 0.14112(7) . 1. 0
Na1 Na1+ 8 f 0.0961(5) 0.8598(6) 0.1182(4) . 1. 0
O1 O2- 8 f 0.3028(8) 0.7289(10) 0.1989(6) 0.009(2) 1. 0
O2 O2- 8 f 0.3231(8) 0.4038(10) 0.1807(6) 0.009(2) 1. 0
O3 O2- 8 f 0.4787(8) 0.5978(9) 0.1073(6) 0.009(2) 1. 0
O4 O2- 8 f 0.1949(8) 0.5999(9) 0.0178(6) 0.007(2) 1. 0
O5 O2- 8 f 0.0232(8) 0.4628(10) 0.1496(6) 0.011(2) 1. 0
O6 O2- 8 f 0.2414(8) 0.4297(9) -.1319(6) 0.008(2) 1. 0
O7 O2- 8 f 0.0921(8) 0.3002(10) -.0188(6) 0.011(2) 1. 0
loop_
_atom_site_aniso_label
_atom_site_aniso_type_symbol
_atom_site_aniso_U_11
_atom_site_aniso_U_22
_atom_site_aniso_U_33
_atom_site_aniso_U_12
_atom_site_aniso_U_13
_atom_site_aniso_U_23
As1 As5+ 0.0025(6) 0.0044(6) 0.0066(6) 0.0002(4) 0.0010(4) -.0006(5)
As2 As5+ 0.0035(6) 0.0074(6) 0.0054(6) -.0010(5) 0.0015(4) -.0003(5)
In1 In3+ 0.0124(5) 0.0133(5) 0.0130(5) -.0003(4) 0.0044(4) 0.0010(4)
Na1 Na1+ 0.011(2) 0.010(3) 0.038(3) 0.000(2) 0.001(2) -.004(2)
#End of TTdata_59304-ICSD