
#(C) 2019 by FIZ Karlsruhe - Leibniz Institute for Information Infrastructure.  All rights reserved.
data_59301-ICSD
_database_code_ICSD 59301
_audit_creation_date 1999-01-19
_chemical_name_systematic 'Disodium fluorophosphato(V)manganate(II)'
_chemical_formula_structural 'Na2 (Mn F (P O4))'
_chemical_formula_sum 'F1 Mn1 Na2 O4 P1'
_exptl_crystal_density_diffrn 3.29
_publ_section_title
'The mixed anionic framework in the structure of Na2 (Mn F (P O4))'
loop_
_citation_id
_citation_journal_full
_citation_year
_citation_journal_volume
_citation_page_first
_citation_page_last
_citation_journal_id_ASTM
primary 'Acta Crystallographica, Section C: Crystal Structure Communications'
1997 53 395 397 ACSCEE
loop_
_publ_author_name
'Yakubovich, O.V.'
'Karimova, O.V.'
'Mel'nikov, O.K. (Melnikov, O.K.)'
_cell_length_a 13.683(3)
_cell_length_b 5.317(1)
_cell_length_c 13.717(3)
_cell_angle_alpha 90.
_cell_angle_beta 119.67(3)
_cell_angle_gamma 90.
_cell_volume 867.11
_cell_formula_units_Z 8
_symmetry_space_group_name_H-M 'P 1 21/n 1'
_symmetry_Int_Tables_number 14
_refine_ls_R_factor_all 0.0367
loop_
_symmetry_equiv_pos_site_id
_symmetry_equiv_pos_as_xyz
1 '-x+1/2, y+1/2, -z+1/2'
2 '-x, -y, -z'
3 'x+1/2, -y+1/2, z+1/2'
4 'x, y, z'
loop_
_atom_type_symbol
_atom_type_oxidation_number
Mn2+ 2
P5+ 5
Na1+ 1
F1- -1
O2- -2
loop_
_atom_site_label
_atom_site_type_symbol
_atom_site_symmetry_multiplicity
_atom_site_Wyckoff_symbol
_atom_site_fract_x
_atom_site_fract_y
_atom_site_fract_z
_atom_site_B_iso_or_equiv
_atom_site_occupancy
_atom_site_attached_hydrogens
Mn1 Mn2+ 4 e 0.10056(4) 0.27224(12) 0.67666(4) . 1. 0
Mn2 Mn2+ 4 e 0.32315(4) 0.22901(11) 0.39959(4) . 1. 0
P1 P5+ 4 e 0.07734(7) 0.2144(2) 0.41529(7) . 1. 0
P2 P5+ 4 e 0.41447(7) 0.7165(2) 0.57665(7) . 1. 0
Na1 Na1+ 4 e 0.58666(14) 0.2383(3) 0.66650(14) . 1. 0
Na2 Na1+ 4 e 0.16698(14) 0.7438(4) 0.58675(14) . 1. 0
Na3 Na1+ 4 e 0.32928(13) 0.2414(3) 0.66320(13) . 1. 0
Na4 Na1+ 4 e 0.16264(13) 0.7370(3) 0.32809(13) . 1. 0
F1 F1- 4 e 0.2365(2) -.0004(4) 0.2368(2) . 1. 0
F2 F1- 4 e 0.2341(2) -.0016(4) 0.7414(2) . 1. 0
O1 O2- 4 e 0.3472(2) 0.8535(5) 0.4638(2) . 1. 0
O2 O2- 4 e 0.1372(2) 0.2855(6) 0.5399(2) . 1. 0
O3 O2- 4 e -.0350(2) 0.3534(5) 0.3510(2) . 1. 0
O4 O2- 4 e 0.4069(2) 0.4283(5) 0.5558(2) . 1. 0
O5 O2- 4 e 0.5385(2) 0.7981(6) 0.6348(2) . 1. 0
O6 O2- 4 e 0.3636(2) 0.7786(6) 0.6517(2) . 1. 0
O7 O2- 4 e 0.0552(2) -.0739(5) 0.4037(2) . 1. 0
O8 O2- 4 e 0.1523(2) 0.2799(6) 0.3648(2) . 1. 0
loop_
_atom_site_aniso_label
_atom_site_aniso_type_symbol
_atom_site_aniso_U_11
_atom_site_aniso_U_22
_atom_site_aniso_U_33
_atom_site_aniso_U_12
_atom_site_aniso_U_13
_atom_site_aniso_U_23
Mn1 Mn2+ 0.0076(2) 0.0088(2) 0.0076(2) 0.0005(2) 0.0035(2) 0.0003(2)
Mn2 Mn2+ 0.0077(2) 0.0081(2) 0.0076(2) -.0003(2) 0.0036(2) -.0002(2)
P1 P5+ 0.0057(3) 0.0081(3) 0.0057(3) 0.0006(3) 0.0028(3) -.0001(3)
P2 P5+ 0.0056(3) 0.0060(3) 0.0054(3) 0.0002(3) 0.0023(3) -.0003(3)
Na1 Na1+ 0.0112(6) 0.0142(8) 0.0125(6) -.0008(6) 0.0049(5) -.0017(6)
Na2 Na1+ 0.0118(6) 0.0169(9) 0.0117(6) -.0015(6) 0.0053(5) -.0006(6)
Na3 Na1+ 0.0116(6) 0.0168(8) 0.0117(6) 0.0019(6) 0.0060(6) 0.0022(6)
Na4 Na1+ 0.0123(7) 0.0152(8) 0.0116(6) 0.0009(6) 0.0056(6) -.0011(6)
F1 F1- 0.0103(10) 0.0087(9) 0.0112(11) -.0006(7) 0.0049(9) -.0011(7)
F2 F1- 0.0104(11) 0.0096(10) 0.0105(9) 0.0024(7) 0.0043(9) 0.0007(7)
O1 O2- 0.0112(11) 0.0105(10) 0.0074(10) 0.0013(8) 0.0015(9) 0.0024(8)
O2 O2- 0.0118(10) 0.0198(12) 0.0070(9) -.0019(10) 0.0045(8) -.0029(10)
O3 O2- 0.0073(10) 0.0110(11) 0.0112(11) 0.0023(8) 0.0023(9) 0.0018(8)
O4 O2- 0.0145(11) 0.0073(10) 0.0106(11) -.0006(9) 0.0046(9) -.0001(8)
O5 O2- 0.0059(9) 0.0163(12) 0.0122(10) -.0024(9) 0.0035(8) -.0027(9)
O6 O2- 0.0110(9) 0.0198(12) 0.0092(9) -.0008(10) 0.0065(8) -.0025(10)
O7 O2- 0.0106(10) 0.0062(10) 0.0157(12) -.0005(8) 0.0047(9) -.0004(9)
O8 O2- 0.0088(9) 0.0197(12) 0.0103(9) -.0012(10) 0.0061(8) 0.0019(10)
#End of TTdata_59301-ICSD