
#(C) 2019 by FIZ Karlsruhe - Leibniz Institute for Information Infrastructure.  All rights reserved.
data_59302-ICSD
_database_code_ICSD 59302
_audit_creation_date 1999-01-19
_chemical_name_systematic 'Tetrasodium cerium(IV) bis(diarsenate(V))'
_chemical_formula_structural 'Na4 Ce (As2 O7)2'
_chemical_formula_sum 'As4 Ce1 Na4 O14'
_exptl_crystal_density_diffrn 4.21
_publ_section_title 'Na4 Ce (As2 O7)2'
loop_
_citation_id
_citation_journal_full
_citation_year
_citation_journal_volume
_citation_page_first
_citation_page_last
_citation_journal_id_ASTM
primary 'Acta Crystallographica, Section C: Crystal Structure Communications'
1997 53 397 399 ACSCEE
loop_
_publ_author_name
'Belam, W.'
'Boughzala, H.'
'Jouini, T.'
_cell_length_a 10.825(3)
_cell_length_b 10.825(3)
_cell_length_c 10.184(6)
_cell_angle_alpha 90.
_cell_angle_beta 90.
_cell_angle_gamma 90.
_cell_volume 1193.37
_cell_formula_units_Z 4
_symmetry_space_group_name_H-M 'P 4/n c c Z'
_symmetry_Int_Tables_number 130
_refine_ls_R_factor_all 0.0262
loop_
_symmetry_equiv_pos_site_id
_symmetry_equiv_pos_as_xyz
1 'y+1/2, x+1/2, -z+1/2'
2 '-y, x+1/2, -z'
3 'y+1/2, -x, -z'
4 '-y, -x, -z+1/2'
5 'x+1/2, y+1/2, -z'
6 '-x, y+1/2, -z+1/2'
7 'x+1/2, -y, -z+1/2'
8 '-x, -y, -z'
9 '-y+1/2, -x+1/2, z+1/2'
10 'y, -x+1/2, z'
11 '-y+1/2, x, z'
12 'y, x, z+1/2'
13 '-x+1/2, -y+1/2, z'
14 'x, -y+1/2, z+1/2'
15 '-x+1/2, y, z+1/2'
16 'x, y, z'
loop_
_atom_type_symbol
_atom_type_oxidation_number
As5+ 5
Ce4+ 4
Na1+ 1
O2- -2
loop_
_atom_site_label
_atom_site_type_symbol
_atom_site_symmetry_multiplicity
_atom_site_Wyckoff_symbol
_atom_site_fract_x
_atom_site_fract_y
_atom_site_fract_z
_atom_site_B_iso_or_equiv
_atom_site_occupancy
_atom_site_attached_hydrogens
As1 As5+ 16 g 0.02354(6) 0.35080(6) 0.32231(7) . 1. 0
Ce1 Ce4+ 4 c 0.25 0.25 0.06918(8) . 1. 0
Na1 Na1+ 16 g -.1016(3) 0.1746(3) 0.1050(3) . 1. 0
O1 O2- 16 g -.1105(4) 0.3026(4) 0.3799(5) . 1. 0
O2 O2- 16 g 0.1241(4) 0.3825(4) 0.4424(4) . 1. 0
O3 O2- 16 g 0.0721(4) 0.2624(4) 0.1983(4) . 1. 0
O4 O2- 8 f -.0010(5) 0.4990(5) 0.25 . 1. 0
loop_
_atom_site_aniso_label
_atom_site_aniso_type_symbol
_atom_site_aniso_U_11
_atom_site_aniso_U_22
_atom_site_aniso_U_33
_atom_site_aniso_U_12
_atom_site_aniso_U_13
_atom_site_aniso_U_23
As1 As5+ 0.0062 0.0063 0.0054 0.0007 0.00013 0.00008
Ce1 Ce4+ 0.0058 0.0059 0.0049 0 0 0
Na1 Na1+ 0.0195 0.034 0.0168 -.0108 -.00376 0.00556
O1 O2- 0.0053 0.0106 0.0151 -.00016 0.00142 0.00863
O2 O2- 0.0158 0.0112 0.007 -.0002 -.00492 -.00078
O3 O2- 0.0076 0.0108 0.0066 -.00038 0.00406 -.00508
O4 O2- 0.0076 0.0076 0.0116 -.00167 0.00017 -.00017
#End of TTdata_59302-ICSD