
#(C) 2019 by FIZ Karlsruhe - Leibniz Institute for Information Infrastructure.  All rights reserved.
data_59333-ICSD
_database_code_ICSD 59333
_audit_creation_date 1999-06-02
_audit_update_record 2015-02-01
_chemical_name_systematic 'Disodium zinc diphosphate(V)'
_chemical_formula_structural 'Na2 Zn (P2 O7)'
_chemical_formula_sum 'Na2 O7 P2 Zn1'
_chemical_name_structure_type Na2ZnP2O7
_exptl_crystal_density_diffrn 3.16
_publ_section_title
'Disodium zinc pyrophosphate and disodium (europium) zinc pyrophosphate'
loop_
_citation_id
_citation_journal_full
_citation_year
_citation_journal_volume
_citation_page_first
_citation_page_last
_citation_journal_id_ASTM
primary 'Acta Crystallographica, Section C: Crystal Structure Communications'
1998 54 1373 1376 ACSCEE
loop_
_publ_author_name
'Erragh, F.'
'Boukhari, A.'
'Sadel, A.'
'Holt, E.M.'
_cell_length_a 7.656(1)
_cell_length_b 7.656(1)
_cell_length_c 10.233(2)
_cell_angle_alpha 90.
_cell_angle_beta 90.
_cell_angle_gamma 90.
_cell_volume 599.8
_cell_formula_units_Z 4
_symmetry_space_group_name_H-M 'P 42/m n m'
_symmetry_Int_Tables_number 136
_refine_ls_R_factor_all 0.039
loop_
_symmetry_equiv_pos_site_id
_symmetry_equiv_pos_as_xyz
1 '-y+1/2, x+1/2, -z+1/2'
2 'y+1/2, -x+1/2, -z+1/2'
3 'y, x, -z'
4 '-y, -x, -z'
5 'y+1/2, -x+1/2, z+1/2'
6 '-y+1/2, x+1/2, z+1/2'
7 '-y, -x, z'
8 'y, x, z'
9 'x+1/2, -y+1/2, -z+1/2'
10 '-x+1/2, y+1/2, -z+1/2'
11 'x, y, -z'
12 '-x, -y, -z'
13 '-x+1/2, y+1/2, z+1/2'
14 'x+1/2, -y+1/2, z+1/2'
15 '-x, -y, z'
16 'x, y, z'
loop_
_atom_type_symbol
_atom_type_oxidation_number
Zn2+ 2
Na1+ 1
P5+ 5
O2- -2
loop_
_atom_site_label
_atom_site_type_symbol
_atom_site_symmetry_multiplicity
_atom_site_Wyckoff_symbol
_atom_site_fract_x
_atom_site_fract_y
_atom_site_fract_z
_atom_site_B_iso_or_equiv
_atom_site_occupancy
_atom_site_attached_hydrogens
Zn1 Zn2+ 4 d 0 0.5 0.25 . 1. 0
Na1 Na1+ 4 g 0.6977(3) 0.6977(3) 0.5 . 1. 0
Na2 Na1+ 4 f 0.6404(3) 0.6404(3) 0 . 1. 0
P1 P5+ 8 j 0.13630(12) 0.13630(12) 0.21145(11) . 1. 0
O1 O2- 8 j 0.1348(3) 0.1348(3) 0.3575(3) . 1. 0
O2 O2- 16 k 0.0776(5) 0.3029(4) 0.1485(3) . 1. 0
O3 O2- 8 j 0.5319(6) 0.5319(6) 0.6580(6) . 0.5 0
loop_
_atom_site_aniso_label
_atom_site_aniso_type_symbol
_atom_site_aniso_U_11
_atom_site_aniso_U_22
_atom_site_aniso_U_33
_atom_site_aniso_U_12
_atom_site_aniso_U_13
_atom_site_aniso_U_23
Zn1 Zn2+ 0.0212(3) 0.0212(3) 0.0138(4) 0 0 0
Na1 Na1+ 0.0334(10) 0.0334(10) 0.0193(13) -.0158(14) 0 0
Na2 Na1+ 0.0285(9) 0.0285(9) 0.0184(13) -.0062(13) 0 0
P1 P5+ 0.0205(4) 0.0205(4) 0.0096(5) 0.0015(5) 0.0014(3) 0.0014(3)
O1 O2- 0.0301(12) 0.0301(12) 0.0102(14) -.0066(16) 0.0004(9) 0.0004(9)
O2 O2- 0.116(3) 0.0302(16) 0.0164(12) 0.035(2) 0.0075(18) 0.0040(13)
O3 O2- 0.029(3) 0.029(3) 0.014(3) 0.004(3) 0.0019(18) 0.0019(18)
#End of TTdata_59333-ICSD