
#(C) 2019 by FIZ Karlsruhe - Leibniz Institute for Information Infrastructure.  All rights reserved.
data_59724-ICSD
_database_code_ICSD 59724
_audit_creation_date 2005-04-01
_chemical_name_systematic 'Dipotassium sodium tris(dicyanoargentate)'
_chemical_formula_structural 'K2 Na (Ag (C N)2)3'
_chemical_formula_sum 'C6 Ag3 K2 N6 Na1'
_chemical_name_structure_type K2NaAg2(CN)6
_exptl_crystal_density_diffrn 2.68
_cell_measurement_temperature 99.
_publ_section_title

;
Reversible luminescence thermochromism in dipotassiumsodium
tris(dicyanoargentate(I)) and the role of structural phase transitions
;
loop_
_citation_id
_citation_journal_full
_citation_year
_citation_journal_volume
_citation_page_first
_citation_page_last
_citation_journal_id_ASTM
primary 'Journal of Solid State Chemistry' 2002 168 267 274 JSSCBI
loop_
_publ_author_name
'Fischer, P.'
'Lucas, B.'
'Omary, M.A.'
'Larochelle, C.L.'
'Patterson, H.H.'
_cell_length_a 6.948(1)
_cell_length_b 12.007(2)
_cell_length_c 8.645(1)
_cell_angle_alpha 90
_cell_angle_beta 89.964(2)
_cell_angle_gamma 90
_cell_volume 721.21
_cell_formula_units_Z 2
_symmetry_space_group_name_H-M 'C 1 2/m 1'
_symmetry_Int_Tables_number 12
_refine_ls_R_factor_all 0.0494
loop_
_symmetry_equiv_pos_site_id
_symmetry_equiv_pos_as_xyz
1 '-x, y, -z'
2 '-x, -y, -z'
3 'x, -y, z'
4 'x, y, z'
5 '-x+1/2, y+1/2, -z'
6 '-x+1/2, -y+1/2, -z'
7 'x+1/2, -y+1/2, z'
8 'x+1/2, y+1/2, z'
loop_
_atom_type_symbol
_atom_type_oxidation_number
Ag1+ 1
C2+ 2
N3- -3
Ag1+ 1
C2+ 2
N3- -3
K1+ 1
Na1+ 1
loop_
_atom_site_label
_atom_site_type_symbol
_atom_site_symmetry_multiplicity
_atom_site_Wyckoff_symbol
_atom_site_fract_x
_atom_site_fract_y
_atom_site_fract_z
_atom_site_B_iso_or_equiv
_atom_site_occupancy
_atom_site_attached_hydrogens
Ag1 Ag1+ 2 b .5 0 0 1.5(3) 1. 0
C1 C2+ 4 i .365(1) 0 .2116(4) 1.0(2) 1. 0
N1 N3- 4 i .2937(9) 0 .3331(3) .9(1) 1. 0
Ag2 Ag1+ 4 e .25 .25 0 1.1(1) 1. 0
C2 C2+ 8 j .182(1) .1816(5) -.2110(2) 1.13(9) 1. 0
N2 N3- 8 j .1486(8) .1481(4) -.3341(2) 1.33(9) 1. 0
K1 K1+ 4 h 0 .333(2) .5 1.3(1) 1. 0
Na1 Na1+ 2 c 0 0 .5 1.1(2) 1. 0
#End of TTdata_59724-ICSD