
#(C) 2019 by FIZ Karlsruhe - Leibniz Institute for Information Infrastructure.  All rights reserved.
data_59813-ICSD
_database_code_ICSD 59813
_audit_creation_date 2005-10-01
_chemical_name_systematic 'Sodium catena-arsenite'
_chemical_formula_structural 'As Na O2'
_chemical_formula_sum 'As1 Na1 O2'
_chemical_name_structure_type Ni2SiP
_exptl_crystal_density_diffrn 3.5
_publ_section_title

;
The catena-arsenite chain anion, [As O2]n(n-): (H3 N C H2 C H2 NH 3)0.5[As O2]
and Na As O2 (revisited)
;
loop_
_citation_id
_citation_journal_full
_citation_year
_citation_journal_volume
_citation_page_first
_citation_page_last
_citation_journal_id_ASTM
primary 'Acta Crystallographica, Section C: Crystal Structure Communications'
2004 60 m215 m218 ACSCEE
loop_
_publ_author_name
'Lee, C.'
'Harrison, W.T.A.'
_cell_length_a 6.7762(5)
_cell_length_b 5.0901(4)
_cell_length_c 14.3098(11)
_cell_angle_alpha 90.
_cell_angle_beta 90.
_cell_angle_gamma 90.
_cell_volume 493.57
_cell_formula_units_Z 8
_symmetry_space_group_name_H-M 'P b c a'
_symmetry_Int_Tables_number 61
_refine_ls_R_factor_all 0.0607
loop_
_symmetry_equiv_pos_site_id
_symmetry_equiv_pos_as_xyz
1 'x+1/2, y, -z+1/2'
2 'x, -y+1/2, z+1/2'
3 '-x+1/2, y+1/2, z'
4 '-x, -y, -z'
5 '-x+1/2, -y, z+1/2'
6 '-x, y+1/2, -z+1/2'
7 'x+1/2, -y+1/2, -z'
8 'x, y, z'
loop_
_atom_type_symbol
_atom_type_oxidation_number
Na1+ 1
As3+ 3
O2- -2
loop_
_atom_site_label
_atom_site_type_symbol
_atom_site_symmetry_multiplicity
_atom_site_Wyckoff_symbol
_atom_site_fract_x
_atom_site_fract_y
_atom_site_fract_z
_atom_site_B_iso_or_equiv
_atom_site_occupancy
_atom_site_attached_hydrogens
Na1 Na1+ 8 c 0.3991(3) 0.7528(4) 0.55533(19) 0.0267(5) 1 0
As1 As3+ 8 c 0.39472(7) 0.73348(8) 0.32861(3) 0.01611(17) 1 0
O1 O2- 8 c 0.5713(5) 0.7839(7) 0.4095(3) 0.0247(8) 1 0
O2 O2- 8 c 0.1975(5) 0.9316(6) 0.3802(2) 0.0215(7) 1 0
loop_
_atom_site_aniso_label
_atom_site_aniso_type_symbol
_atom_site_aniso_U_11
_atom_site_aniso_U_22
_atom_site_aniso_U_33
_atom_site_aniso_U_12
_atom_site_aniso_U_13
_atom_site_aniso_U_23
Na1 Na1+ 0.0154(10) 0.0268(12) 0.0378(12) 0.0011(8) 0.0046(8) 0.0028(8)
As1 As3+ 0.0130(2) 0.0133(2) 0.0219(3) -0.00103(15) 0.00058(16) 0.00031(15)
O1 O2- 0.0142(15) 0.0276(18) 0.032(2) -0.0015(13) -0.0046(13) -0.0013(13)
O2 O2- 0.0149(15) 0.0140(14) 0.036(2) 0.0041(12) 0.0021(14) 0.0030(12)
#End of TTdata_59813-ICSD