
#(C) 2019 by FIZ Karlsruhe - Leibniz Institute for Information Infrastructure.  All rights reserved.
data_59839-ICSD
_database_code_ICSD 59839
_audit_creation_date 2005-10-01
_audit_update_record 2008-02-01
_chemical_name_systematic 'Dimagnesium disodium decavanadate icosahydrate'
_chemical_formula_structural 'Mg2 Na2 (V10 O28) (H2 O)20'
_chemical_formula_sum 'H40 Mg2 Na2 O48 V10'
_exptl_crystal_density_diffrn 2.39
_cell_measurement_temperature 93.
_publ_section_title 'Mg2 Na2 V10 O28.20 H2 O and Mg3 V10 O28.28 H2 O'
loop_
_citation_id
_citation_journal_full
_citation_year
_citation_journal_volume
_citation_page_first
_citation_page_last
_citation_journal_id_ASTM
primary 'Acta Crystallographica, Section C: Crystal Structure Communications'
2004 60 i43 i46 ACSCEE
loop_
_publ_author_name
'Iida, A.'
'Ozeki, T.'
_cell_length_a 23.8384(6)
_cell_length_b 11.0248(2)
_cell_length_c 16.9332(4)
_cell_angle_alpha 90.
_cell_angle_beta 118.0050(10)
_cell_angle_gamma 90.
_cell_volume 3929.18
_cell_formula_units_Z 4
_symmetry_space_group_name_H-M 'C 1 2/c 1'
_symmetry_Int_Tables_number 15
_refine_ls_R_factor_all 0.0397
loop_
_symmetry_equiv_pos_site_id
_symmetry_equiv_pos_as_xyz
1 'x, -y, z+1/2'
2 '-x, -y, -z'
3 '-x, y, -z+1/2'
4 'x, y, z'
5 'x+1/2, -y+1/2, z+1/2'
6 '-x+1/2, -y+1/2, -z'
7 '-x+1/2, y+1/2, -z+1/2'
8 'x+1/2, y+1/2, z'
loop_
_atom_type_symbol
_atom_type_oxidation_number
V5+ 5
O2- -2
Mg2+ 2
O2- -2
H1+ 1
O2- -2
H1+ 1
O2- -2
H1+ 1
O2- -2
H1+ 1
O2- -2
H1+ 1
O2- -2
H1+ 1
Na1+ 1
O2- -2
H1+ 1
O2- -2
H1+ 1
O2- -2
H1+ 1
O2- -2
H1+ 1
loop_
_atom_site_label
_atom_site_type_symbol
_atom_site_symmetry_multiplicity
_atom_site_Wyckoff_symbol
_atom_site_fract_x
_atom_site_fract_y
_atom_site_fract_z
_atom_site_B_iso_or_equiv
_atom_site_occupancy
_atom_site_attached_hydrogens
V1 V5+ 8 f 0.071893(13) 0.21033(3) 0.283133(19) 0.00579(7) 1 0
V2 V5+ 8 f 0.073321(13) 0.61761(3) 0.286072(19) 0.00558(7) 1 0
V3 V5+ 8 f 0.133464(14) 0.41597(3) 0.218853(19) 0.00599(7) 1 0
V4 V5+ 8 f 0.155828(14) 0.41074(3) 0.412962(19) 0.00636(7) 1 0
V5 V5+ 8 f 0.011514(13) 0.41638(3) 0.352932(19) 0.00489(7) 1 0
O1 O2- 8 f 0.07166(6) 0.06513(12) 0.28211(9) 0.0104(3) 1 0
O2 O2- 8 f 0.07392(6) 0.76400(12) 0.28697(8) 0.0094(3) 1 0
O3 O2- 8 f 0.17340(6) 0.41393(12) 0.16419(9) 0.0097(2) 1 0
O4 O2- 8 f 0.21439(6) 0.41404(12) 0.51254(9) 0.0111(3) 1 0
O5 O2- 8 f 0.04407(6) 0.41401(11) 0.11155(8) 0.0074(2) 1 0
O6 O2- 8 f 0.08335(6) 0.41632(11) 0.44589(8) 0.0070(2) 1 0
O7 O2- 8 f 0.19249(6) 0.41349(11) 0.33890(8) 0.0076(2) 1 0
O8 O2- 8 f 0.11699(6) 0.24886(12) 0.22362(8) 0.0074(2) 1 0
O9 O2- 8 f 0.13695(6) 0.24692(12) 0.39493(8) 0.0075(2) 1 0
O10 O2- 8 f 0.11717(6) 0.57965(11) 0.22367(8) 0.0075(2) 1 0
O11 O2- 8 f 0.13780(6) 0.58033(11) 0.39391(8) 0.0076(2) 1 0
O12 O2- 8 f 0.00939(6) 0.24470(11) 0.32797(8) 0.0065(2) 1 0
O13 O2- 8 f 0.00925(6) 0.58639(11) 0.32791(8) 0.0061(2) 1 0
O14 O2- 8 f 0.06284(6) 0.41564(11) 0.27887(8) 0.0060(2) 1 0
Mg1 Mg2+ 8 f 0.11263(3) 0.09300(6) 0.59027(4) 0.00735(12) 1 0
O15 O2- 8 f 0.11310(7) -0.09275(13) 0.59606(10) 0.0111(3) 1 0
H1 H1+ 8 f 0.1137(12) -0.127(3) 0.6325(19) 0.021(7) 1 0
H2 H1+ 8 f 0.0996(12) -0.132(2) 0.5571(19) 0.019(7) 1 0
O16 O2- 8 f 0.04096(7) 0.09098(14) 0.46271(9) 0.0112(3) 1 0
H3 H1+ 8 f 0.0321(15) 0.132(3) 0.430(2) 0.036(10) 1 0
H4 H1+ 8 f 0.0197(13) 0.038(3) 0.4394(18) 0.023(7) 1 0
O17 O2- 8 f 0.17754(7) 0.08550(13) 0.53848(10) 0.0094(3) 1 0
H5 H1+ 8 f 0.1732(11) 0.128(2) 0.5001(16) 0.009(6) 1 0
H6 H1+ 8 f 0.2098(15) 0.087(3) 0.572(2) 0.032(9) 1 0
O18 O2- 8 f 0.17799(7) 0.08937(15) 0.72108(10) 0.0130(3) 1 0
H7 H1+ 8 f 0.1941(13) 0.031(3) 0.7421(18) 0.021(7) 1 0
H8 H1+ 8 f 0.1913(13) 0.140(3) 0.7475(19) 0.024(8) 1 0
O19 O2- 8 f 0.03705(7) 0.10426(13) 0.62451(10) 0.0105(3) 1 0
H9 H1+ 8 f 0.0447(13) 0.106(2) 0.6715(19) 0.020(7) 1 0
H10 H1+ 8 f 0.0158(13) 0.154(3) 0.6036(18) 0.021(7) 1 0
O20 O2- 8 f 0.11855(7) 0.27880(13) 0.59552(11) 0.0127(3) 1 0
H11 H1+ 8 f 0.1091(12) 0.315(2) 0.5590(19) 0.016(7) 1 0
H12 H1+ 8 f 0.1190(14) 0.311(3) 0.633(2) 0.032(9) 1 0
Na1 Na1+ 8 f 0.19887(4) 0.67605(8) 0.53862(5) 0.01792(18) 1 0
O21 O2- 8 f 0.19082(8) 0.85630(15) 0.45240(11) 0.0181(3) 1 0
H13 H1+ 8 f 0.1870(17) 0.913(3) 0.471(2) 0.048(11) 1 0
H14 H1+ 8 f 0.1597(15) 0.861(3) 0.405(2) 0.036(9) 1 0
O22 O2- 8 f 0.26327(7) 0.78830(14) 0.66768(10) 0.0148(3) 1 0
H15 H1+ 8 f 0.2529(15) 0.810(3) 0.697(2) 0.036(10) 1 0
H16 H1+ 8 f 0.2906(14) 0.830(3) 0.6721(18) 0.025(7) 1 0
O23 O2- 8 f 0.23146(7) 0.12755(14) 0.29653(10) 0.0134(3) 1 0
H17 H1+ 8 f 0.2055(13) 0.160(3) 0.2934(18) 0.020(7) 1 0
H18 H1+ 8 f 0.2555(15) 0.141(3) 0.349(2) 0.038(9) 1 0
O24 O2- 8 f 0.05511(8) 0.72088(14) 0.47750(11) 0.0186(3) 1 0
H19 H1+ 8 f 0.0444(15) 0.687(3) 0.435(2) 0.042(10) 1 0
H20 H1+ 8 f 0.0472(12) 0.692(2) 0.5060(18) 0.015(7) 1 0
loop_
_atom_site_aniso_label
_atom_site_aniso_type_symbol
_atom_site_aniso_U_11
_atom_site_aniso_U_22
_atom_site_aniso_U_33
_atom_site_aniso_U_12
_atom_site_aniso_U_13
_atom_site_aniso_U_23
V1 V5+ 0.00634(14) 0.00436(14) 0.00689(14) 0.00063(10) 0.00328(11) 0.00035(10)
V2 V5+ 0.00648(14) 0.00398(14) 0.00618(13) -0.00068(10) 0.00290(11) -0.00018(10)
V3 V5+ 0.00583(13) 0.00621(14) 0.00645(13) -0.00001(10) 0.00330(11) 0.00013(10)
V4 V5+ 0.00517(13) 0.00764(14) 0.00530(13) -0.00022(10) 0.00166(10) 0.00039(11)
V5 V5+ 0.00573(13) 0.00466(14) 0.00435(13) -0.00004(10) 0.00243(11) 0.00021(10)
O1 O2- 0.0114(6) 0.0068(6) 0.0135(6) 0.0014(5) 0.0061(5) 0.0010(5)
O2 O2- 0.0116(6) 0.0066(6) 0.0107(6) -0.0012(5) 0.0057(5) 0.0002(5)
O3 O2- 0.0089(6) 0.0115(6) 0.0105(6) -0.0001(5) 0.0061(5) 0.0004(5)
O4 O2- 0.0084(6) 0.0151(7) 0.0077(6) -0.0008(5) 0.0021(5) 0.0008(5)
O5 O2- 0.0078(6) 0.0077(6) 0.0071(6) -0.0001(5) 0.0038(5) -0.0002(5)
O6 O2- 0.0071(6) 0.0081(6) 0.0050(5) 0.0006(5) 0.0022(4) 0.0008(4)
O7 O2- 0.0072(6) 0.0083(6) 0.0070(6) 0.0005(5) 0.0030(5) 0.0012(5)
O8 O2- 0.0086(6) 0.0059(6) 0.0084(5) 0.0005(5) 0.0045(5) 0.0003(5)
O9 O2- 0.0073(6) 0.0067(6) 0.0076(5) 0.0011(5) 0.0028(4) 0.0013(5)
O10 O2- 0.0086(6) 0.0066(6) 0.0082(6) -0.0010(5) 0.0048(5) -0.0002(5)
O11 O2- 0.0072(6) 0.0073(6) 0.0071(5) -0.0008(5) 0.0024(5) -0.0002(5)
O12 O2- 0.0074(6) 0.0055(6) 0.0064(5) -0.0003(4) 0.0031(4) 0.0004(5)
O13 O2- 0.0072(6) 0.0053(6) 0.0055(5) 0.0004(4) 0.0027(4) 0.0004(4)
O14 O2- 0.0072(5) 0.0050(6) 0.0057(5) 0.0002(4) 0.0028(4) 0.0005(4)
Mg1 Mg2+ 0.0082(3) 0.0069(3) 0.0064(3) -0.0005(2) 0.0030(2) 0.0003(2)
O15 O2- 0.0170(7) 0.0077(6) 0.0078(6) -0.0031(5) 0.0053(5) 0.0002(6)
O16 O2- 0.0117(6) 0.0100(7) 0.0076(6) -0.0028(5) 0.0010(5) 0.0030(6)
O17 O2- 0.0071(6) 0.0119(6) 0.0089(6) -0.0006(5) 0.0036(5) 0.0025(5)
O18 O2- 0.0152(7) 0.0082(7) 0.0085(6) -0.0005(6) -0.0002(5) -0.0003(6)
O19 O2- 0.0115(7) 0.0127(7) 0.0069(6) -0.0001(5) 0.0040(5) -0.0002(5)
O20 O2- 0.0246(8) 0.0074(7) 0.0077(6) 0.0019(5) 0.0089(6) 0.0008(6)
Na1 Na1+ 0.0257(4) 0.0151(4) 0.0096(4) -0.0090(3) 0.0056(3) -0.0037(3)
O21 O2- 0.0197(8) 0.0139(8) 0.0156(7) 0.0000(6) 0.0041(6) -0.0049(6)
O22 O2- 0.0126(7) 0.0136(7) 0.0186(7) -0.0033(6) 0.0076(6) -0.0018(6)
O23 O2- 0.0115(7) 0.0127(7) 0.0111(7) 0.0046(5) 0.0012(6) -0.0006(5)
O24 O2- 0.0381(10) 0.0113(7) 0.0108(7) -0.0090(6) 0.0152(7) -0.0042(6)
#End of TTdata_59839-ICSD