
#(C) 2019 by FIZ Karlsruhe - Leibniz Institute for Information Infrastructure.  All rights reserved.
data_59832-ICSD
_database_code_ICSD 59832
_audit_creation_date 2005-10-01
_chemical_name_systematic 'Sodium magnesium bis(vanadate) pyrovanadate'
_chemical_formula_structural 'Na6 Mg2 (V O4)2 (V2 O7)'
_chemical_formula_sum 'Mg2 Na6 O15 V4'
_exptl_crystal_density_diffrn 3.01
_publ_section_title
'Sodium magnesium bis(vanadate) pyrovanadate: Na6 Mg2 (V O4)2 (V2 O7)'
loop_
_citation_id
_citation_journal_full
_citation_year
_citation_journal_volume
_citation_page_first
_citation_page_last
_citation_journal_id_ASTM
primary 'Acta Crystallographica, Section C: Crystal Structure Communications'
2004 60 i56 i58 ACSCEE
loop_
_publ_author_name
'Mitiaev, A.'
'Mironov, A.'
'Shpanchenko, R.V.'
'Antipov, E.'
_cell_length_a 17.080(3)
_cell_length_b 14.6910(18)
_cell_length_c 5.5356(7)
_cell_angle_alpha 90.
_cell_angle_beta 90.
_cell_angle_gamma 90.
_cell_volume 1389.01
_cell_formula_units_Z 4
_symmetry_space_group_name_H-M 'P n m a'
_symmetry_Int_Tables_number 62
_refine_ls_R_factor_all 0.0372
loop_
_symmetry_equiv_pos_site_id
_symmetry_equiv_pos_as_xyz
1 'x+1/2, y, -z+1/2'
2 'x, -y+1/2, z'
3 '-x+1/2, y+1/2, z+1/2'
4 '-x, -y, -z'
5 '-x+1/2, -y, z+1/2'
6 '-x, y+1/2, -z'
7 'x+1/2, -y+1/2, -z+1/2'
8 'x, y, z'
loop_
_atom_type_symbol
_atom_type_oxidation_number
V5+ 5
Mg2+ 2
Na1+ 1
O2- -2
loop_
_atom_site_label
_atom_site_type_symbol
_atom_site_symmetry_multiplicity
_atom_site_Wyckoff_symbol
_atom_site_fract_x
_atom_site_fract_y
_atom_site_fract_z
_atom_site_B_iso_or_equiv
_atom_site_occupancy
_atom_site_attached_hydrogens
V1 V5+ 4 c 0.96978(4) 0.25 0.49547(13) 0.00765(14) 1 0
V2 V5+ 8 d 0.35833(3) 0.01236(3) 0.51440(9) 0.00839(11) 1 0
V3 V5+ 8 d 0.68766(6) 0.21378(6) 0.53229(16) 0.0085(2) 0.5 0
Mg1 Mg2+ 4 b 0 0 0.5 0.0103(3) 1 0
Mg2 Mg2+ 4 c 0.32177(8) 0.25 0.4950(2) 0.0081(3) 1 0
Na1 Na1+ 8 d 0.50142(9) 0.13791(10) 0.5134(3) 0.0242(4) 1 0
Na2 Na1+ 8 d 0.83171(10) 0.12119(11) 0.4773(3) 0.0316(5) 1 0
Na3 Na1+ 8 d 0.16297(17) 0.1369(2) 0.4065(6) 0.0213(6) 0.5 0
Na4 Na1+ 8 d 0.16104(17) 0.1170(2) 0.5479(6) 0.0213(6) 0.5 0
O1 O2- 4 c 0.8985(2) 0.25 0.7138(5) 0.0171(9) 1 0
O2 O2- 4 c 0.59707(19) 0.25 0.4602(6) 0.0204(9) 1 0
O3 O2- 4 c 0.42109(19) 0.25 0.2757(5) 0.0159(8) 1 0
O4 O2- 4 c 0.21445(19) 0.25 0.6862(5) 0.0154(8) 1 0
O5 O2- 4 c 0.7527(2) 0.25 0.3249(5) 0.0153(8) 1 0
O6 O2- 8 d 0.30663(14) 0.10984(15) 0.4797(4) 0.0186(6) 1 0
O7 O2- 8 d 0.02185(13) 0.15062(16) 0.5239(4) 0.0177(6) 1 0
O8 O2- 8 d 0.43209(14) 0.01217(16) 0.3088(4) 0.0181(6) 1 0
O9 O2- 8 d 0.69933(15) 0.08289(18) 0.5313(5) 0.0260(7) 1 0
O10 O2- 8 d 0.89792(13) 0.00843(16) 0.7012(4) 0.0160(6) 1 0
loop_
_atom_site_aniso_label
_atom_site_aniso_type_symbol
_atom_site_aniso_U_11
_atom_site_aniso_U_22
_atom_site_aniso_U_33
_atom_site_aniso_U_12
_atom_site_aniso_U_13
_atom_site_aniso_U_23
V1 V5+ 0.0076(3) 0.0079(2) 0.0075(2) 0 -0.0005(2) 0
V2 V5+ 0.00808(19) 0.00828(18) 0.00882(19) -0.00008(13) -0.00082(16)
-0.00018(16)
V3 V5+ 0.0074(3) 0.0092(4) 0.0090(4) -0.0013(3) -0.0001(3) -0.0002(3)
Mg1 Mg2+ 0.0078(6) 0.0153(6) 0.0077(5) 0.0017(5) -0.0011(5) 0.0001(6)
Mg2 Mg2+ 0.0082(6) 0.0090(5) 0.0070(5) 0 0.0009(5) 0
Na1 Na1+ 0.0252(7) 0.0174(6) 0.0301(8) -0.0043(6) -0.0056(6) 0.0010(7)
Na2 Na1+ 0.0380(9) 0.0227(7) 0.0341(9) -0.0098(7) -0.0190(8) 0.0076(7)
Na3 Na1+ 0.0179(8) 0.0164(11) 0.0295(12) -0.0062(8) 0.0000(10) -0.0070(9)
Na4 Na1+ 0.0179(8) 0.0164(11) 0.0295(12) -0.0062(8) 0.0000(10) -0.0070(9)
O1 O2- 0.0187(16) 0.0224(16) 0.0103(13) 0 0.0049(12) 0
O2 O2- 0.0096(13) 0.0297(18) 0.0219(16) 0 -0.0045(12) 0
O3 O2- 0.0135(14) 0.0244(16) 0.0098(12) 0 0.0039(11) 0
O4 O2- 0.0158(15) 0.0192(15) 0.0112(12) 0 0.0016(11) 0
O5 O2- 0.0193(16) 0.0142(13) 0.0126(13) 0 0.0049(12) 0
O6 O2- 0.0175(10) 0.0138(9) 0.0246(11) 0.0038(8) -0.0021(10) 0.0044(9)
O7 O2- 0.0153(9) 0.0149(9) 0.0230(11) 0.0053(7) 0.0003(9) -0.0006(10)
O8 O2- 0.0167(10) 0.0236(11) 0.0139(9) 0.0006(9) 0.0044(8) -0.0013(9)
O9 O2- 0.0204(11) 0.0270(13) 0.0306(13) -0.0062(10) -0.0018(11) -0.0036(12)
O10 O2- 0.0151(10) 0.0213(11) 0.0115(9) 0.0022(9) 0.0029(8) -0.0005(8)
#End of TTdata_59832-ICSD