
#(C) 2019 by FIZ Karlsruhe - Leibniz Institute for Information Infrastructure.  All rights reserved.
data_59950-ICSD
_database_code_ICSD 59950
_audit_creation_date 2005-10-01
_chemical_name_systematic 'Disodium metabisulfite'
_chemical_formula_structural 'Na2 S2 O5'
_chemical_formula_sum 'Na2 O5 S2'
_exptl_crystal_density_diffrn 2.35
_cell_measurement_temperature 153.
_publ_section_title
'The surprisingly elusive crystal structure of sodium metabisulfite'
loop_
_citation_id
_citation_journal_full
_citation_year
_citation_journal_volume
_citation_page_first
_citation_page_last
_citation_journal_id_ASTM
primary 'Acta Crystallographica, Section B: Structural Science' 2004 60 155 162
ASBSDK
loop_
_publ_author_name
'Carter, K.L.'
'Siddiquee, T.A.'
'Murphy, K.L.'
'Bennett, D.W.'
_cell_length_a 6.0730(10)
_cell_length_b 5.4700(10)
_cell_length_c 8.3180(10)
_cell_angle_alpha 90
_cell_angle_beta 103.160(10)
_cell_angle_gamma 90
_cell_volume 269.06
_cell_formula_units_Z 2
_symmetry_space_group_name_H-M 'P 1 21 1'
_symmetry_Int_Tables_number 4
_refine_ls_R_factor_all 0.04
loop_
_symmetry_equiv_pos_site_id
_symmetry_equiv_pos_as_xyz
1 '-x, y+1/2, -z'
2 'x, y, z'
loop_
_atom_type_symbol
_atom_type_oxidation_number
S4+ 4
Na1+ 1
O2- -2
loop_
_atom_site_label
_atom_site_type_symbol
_atom_site_symmetry_multiplicity
_atom_site_Wyckoff_symbol
_atom_site_fract_x
_atom_site_fract_y
_atom_site_fract_z
_atom_site_B_iso_or_equiv
_atom_site_occupancy
_atom_site_attached_hydrogens
S1 S4+ 2 a 0.17866(9) 0.7510(6) 0.26907(7) 0.02189(17) 1 0
S2 S4+ 2 a 0.55190(10) 0.7542(7) 0.30265(8) 0.0308(2) 1 0
Na1 Na1+ 2 a 0.71380(18) 0.7516(9) -0.05186(14) 0.0296(3) 1 0
Na2 Na1+ 2 a 0.8752(2) 1.2576(16) 0.31210(17) 0.0506(4) 1 0
O1 O2- 2 a 0.5752(12) 0.9922(14) 0.2157(12) 0.077(3) 1 0
O2 O2- 2 a 0.5785(14) 0.5554(16) 0.1949(10) 0.0618(17) 1 0
O3 O2- 2 a 0.126(2) 0.481(2) 0.2477(17) 0.031(3) 0.471(15) 0
O4 O2- 2 a 0.123(2) 1.0099(19) 0.2399(17) 0.040(3) 0.554(15) 0
O5 O2- 2 a 0.0843(19) 0.893(2) 0.1232(13) 0.033(4) 0.471(15) 0
O6 O2- 2 a 0.076(2) 0.611(2) 0.1219(15) 0.042(3) 0.554(15) 0
O7 O2- 2 a 0.121(2) 0.840(3) 0.4151(16) 0.035(3) 0.471(15) 0
O8 O2- 2 a 0.121(2) 0.653(2) 0.4198(15) 0.041(3) 0.554(15) 0
loop_
_atom_site_aniso_label
_atom_site_aniso_type_symbol
_atom_site_aniso_U_11
_atom_site_aniso_U_22
_atom_site_aniso_U_33
_atom_site_aniso_U_12
_atom_site_aniso_U_13
_atom_site_aniso_U_23
S1 S4+ 0.0151(3) 0.0290(3) 0.0225(3) 0.0027(8) 0.00627(19) 0.0027(9)
S2 S4+ 0.0150(3) 0.0512(4) 0.0251(3) 0.0005(10) 0.0024(2) 0.0049(10)
Na1 Na1+ 0.0249(5) 0.0342(6) 0.0310(5) 0.0040(18) 0.0093(4) 0.0018(18)
Na2 Na1+ 0.0208(6) 0.0990(13) 0.0333(6) 0.002(2) 0.0091(5) -0.002(3)
O1 O2- 0.019(2) 0.093(5) 0.106(6) -0.025(3) -0.012(3) 0.058(4)
O2 O2- 0.029(3) 0.102(5) 0.054(3) 0.010(3) 0.008(2) -0.037(3)
O3 O2- 0.023(5) 0.030(6) 0.046(6) -0.002(4) 0.020(5) 0.009(5)
O4 O2- 0.038(6) 0.027(5) 0.057(7) 0.001(4) 0.016(5) 0.004(4)
O5 O2- 0.022(5) 0.047(8) 0.022(5) -0.008(4) -0.015(3) 0.018(5)
O6 O2- 0.026(5) 0.045(7) 0.058(7) 0.002(4) 0.014(4) -0.021(6)
O7 O2- 0.031(6) 0.045(8) 0.033(6) -0.009(5) 0.017(5) -0.014(5)
O8 O2- 0.039(6) 0.052(9) 0.036(5) -0.017(5) 0.016(4) -0.004(5)
#End of TTdata_59950-ICSD