
#(C) 2019 by FIZ Karlsruhe - Leibniz Institute for Information Infrastructure.  All rights reserved.
data_59974-ICSD
_database_code_ICSD 59974
_audit_creation_date 2005-10-01
_audit_update_record 2008-08-01
_chemical_name_systematic 'Sodium titaniumm gallium oxide (0.8/1.2/4.8/10)'
_chemical_formula_structural 'Na0.8 Ti1.2 Ga4.8 O10'
_chemical_formula_sum 'Ga4.8 Na0.8 O10 Ti1.2'
_chemical_name_structure_type Na1-xTi1+xGa5-xO10
_exptl_crystal_density_diffrn 5.
_cell_measurement_temperature 299.
_publ_section_title

;
Structure refinements of Na(0.8) Ti(1.2) Ga(4.8) O10: x-ray diffraction
analysis for the sodium ion distribution in a one-dimensional tunnel-like
space
;
loop_
_citation_id
_citation_journal_full
_citation_year
_citation_journal_volume
_citation_page_first
_citation_page_last
_citation_journal_id_ASTM
primary 'Acta Crystallographica, Section B: Structural Science' 2004 60 692 697
ASBSDK
loop_
_publ_author_name
'Michiue, Y.'
'Sato, A.'
_cell_length_a 12.1008(8)
_cell_length_b 3.0113(2)
_cell_length_c 10.4100(6)
_cell_angle_alpha 90
_cell_angle_beta 92.258(4)
_cell_angle_gamma 90
_cell_volume 379.04
_cell_formula_units_Z 2
_symmetry_space_group_name_H-M 'C 1 2/m 1'
_symmetry_Int_Tables_number 12
_refine_ls_R_factor_all 0.0367
loop_
_symmetry_equiv_pos_site_id
_symmetry_equiv_pos_as_xyz
1 '-x, y, -z'
2 '-x, -y, -z'
3 'x, -y, z'
4 'x, y, z'
5 '-x+1/2, y+1/2, -z'
6 '-x+1/2, -y+1/2, -z'
7 'x+1/2, -y+1/2, z'
8 'x+1/2, y+1/2, z'
loop_
_atom_type_symbol
_atom_type_oxidation_number
Na1+ 1
Ga3+ 3
Ti4+ 4
O2- -2
loop_
_atom_site_label
_atom_site_type_symbol
_atom_site_symmetry_multiplicity
_atom_site_Wyckoff_symbol
_atom_site_fract_x
_atom_site_fract_y
_atom_site_fract_z
_atom_site_B_iso_or_equiv
_atom_site_occupancy
_atom_site_attached_hydrogens
Na1 Na1+ 2 c 0 0 0.5 0.045(4) 0.421(19) 0
Na2 Na1+ 4 h 0 0.225(11) 0.5 0.075(9) 0.193(6) 0
Ga1 Ga3+ 4 i 0.063729(18) 0 0.16343(2) 0.00548(4) 1 0
Ga2 Ga3+ 4 i 0.323682(18) 0 0.10155(2) 0.00567(5) 1 0
Ga3 Ga3+ 4 i 0.26463(3) 0 0.62588(3) 0.00758(6) 0.404(3) 0
Ti1 Ti4+ 4 i 0.26463(3) 0 0.62588(3) 0.00758(6) 0.596(3) 0
O1 O2- 4 i 0.16415(12) 0 0.03184(13) 0.0060(3) 1 0
O2 O2- 4 i 0.13003(13) 0 0.32496(14) 0.0078(3) 1 0
O3 O2- 4 i 0.20431(13) 0 0.78848(13) 0.0071(3) 1 0
O4 O2- 4 i 0.32467(13) 0 0.44561(14) 0.0083(3) 1 0
O5 O2- 4 i 0.48026(12) 0 0.14288(16) 0.0081(3) 1 0
loop_
_atom_site_aniso_label
_atom_site_aniso_type_symbol
_atom_site_aniso_U_11
_atom_site_aniso_U_22
_atom_site_aniso_U_33
_atom_site_aniso_U_12
_atom_site_aniso_U_13
_atom_site_aniso_U_23
Na1 Na1+ 0.026(4) 0.081(10) 0.030(3) 0 0.020(3) 0
Na2 Na1+ 0.012(4) 0.16(2) 0.058(8) 0 -0.006(4) 0
Ga1 Ga3+ 0.00490(8) 0.00560(8) 0.00592(7) 0 -0.00006(6) 0
Ga2 Ga3+ 0.00476(8) 0.00526(8) 0.00693(7) 0 -0.00074(6) 0
Ga3 Ga3+ 0.00490(8) 0.00560(8) 0.00592(7) 0 -0.00006(6) 0
Ti1 Ti4+ 0.01020(12) 0.00705(11) 0.00551(8) 0 0.00043(7) 0
O1 O2- 0.0049(5) 0.0070(5) 0.0062(4) 0 0.0001(3) 0
O2 O2- 0.0083(5) 0.0087(5) 0.0064(4) 0 -0.0015(4) 0
O3 O2- 0.0104(6) 0.0057(5) 0.0054(4) 0 0.0017(4) 0
O4 O2- 0.0084(5) 0.0095(6) 0.0070(4) 0 -0.0002(4) 0
O5 O2- 0.0048(5) 0.0054(5) 0.0138(5) 0 -0.0016(4) 0
#End of TTdata_59974-ICSD