
#(C) 2019 by FIZ Karlsruhe - Leibniz Institute for Information Infrastructure.  All rights reserved.
data_59979-ICSD
_database_code_ICSD 59979
_audit_creation_date 2005-10-01
_audit_update_record 2012-08-01
_chemical_name_systematic 'Sodium titaniumm gallium oxide (0.8/1.2/4.8/10)'
_chemical_formula_structural 'Na0.8 Ti1.2 Ga4.8 O10'
_chemical_formula_sum 'Ga4.8 Na0.8 O10 Ti1.2'
_chemical_name_structure_type Na1-xTi1+xGa5-xO10
_exptl_crystal_density_diffrn 5.01
_cell_measurement_temperature 173.
_publ_section_title

;
Structure refinements of Na(0.8) Ti(1.2) Ga(4.8) O10: x-ray diffraction
analysis for the sodium ion distribution in a one-dimensional tunnel-like
space
;
loop_
_citation_id
_citation_journal_full
_citation_year
_citation_journal_volume
_citation_page_first
_citation_page_last
_citation_journal_id_ASTM
primary 'Acta Crystallographica, Section B: Structural Science' 2004 60 692 697
ASBSDK
loop_
_publ_author_name
'Michiue, Y.'
'Sato, A.'
_cell_length_a 12.0848(12)
_cell_length_b 3.0101(3)
_cell_length_c 10.4014(9)
_cell_angle_alpha 90
_cell_angle_beta 92.187(5)
_cell_angle_gamma 90
_cell_volume 378.09
_cell_formula_units_Z 2
_symmetry_space_group_name_H-M 'C 1 2/m 1'
_symmetry_Int_Tables_number 12
_refine_ls_R_factor_all 0.0402
loop_
_symmetry_equiv_pos_site_id
_symmetry_equiv_pos_as_xyz
1 '-x, y, -z'
2 '-x, -y, -z'
3 'x, -y, z'
4 'x, y, z'
5 '-x+1/2, y+1/2, -z'
6 '-x+1/2, -y+1/2, -z'
7 'x+1/2, -y+1/2, z'
8 'x+1/2, y+1/2, z'
loop_
_atom_type_symbol
_atom_type_oxidation_number
Na1+ 1
Ga3+ 3
Ti4+ 4
O2- -2
loop_
_atom_site_label
_atom_site_type_symbol
_atom_site_symmetry_multiplicity
_atom_site_Wyckoff_symbol
_atom_site_fract_x
_atom_site_fract_y
_atom_site_fract_z
_atom_site_B_iso_or_equiv
_atom_site_occupancy
_atom_site_attached_hydrogens
Na1 Na1+ 2 c 0 0 0.5 0.1085 0.808(6) 0
Ga1 Ga3+ 4 i 0.063737(19) 0 0.16364(2) 0.00414(5) 1 0
Ga2 Ga3+ 4 i 0.323601(18) 0 0.10136(2) 0.00433(5) 1 0
Ga3 Ga3+ 4 i 0.26469(3) 0 0.62574(3) 0.00593(6) 0.404(3) 0
Ti1 Ti4+ 4 i 0.26469(3) 0 0.62574(3) 0.00593(6) 0.596(3) 0
O1 O2- 4 i 0.16412(12) 0 0.03181(14) 0.0049(3) 1 0
O2 O2- 4 i 0.12991(13) 0 0.32544(15) 0.0062(3) 1 0
O3 O2- 4 i 0.20429(13) 0 0.78856(15) 0.0058(3) 1 0
O4 O2- 4 i 0.32471(13) 0 0.44578(15) 0.0068(3) 1 0
O5 O2- 4 i 0.48034(13) 0 0.14277(17) 0.0063(3) 1 0
loop_
_atom_site_aniso_label
_atom_site_aniso_type_symbol
_atom_site_aniso_U_11
_atom_site_aniso_U_22
_atom_site_aniso_U_33
_atom_site_aniso_U_12
_atom_site_aniso_U_13
_atom_site_aniso_U_23
Na1 Na1+ 0.017158 0.0281274 0.027615 0 0.008105 0
Ga1 Ga3+ 0.00349(9) 0.00443(9) 0.00450(7) 0 0.00002(6) 0
Ga2 Ga3+ 0.00339(9) 0.00415(9) 0.00537(7) 0 -0.00066(6) 0
Ga3 Ga3+ 0.00349(9) 0.00443(9) 0.00450(7) 0 0.00002(6) 0
Ti1 Ti4+ 0.00794(12) 0.00555(12) 0.00432(9) 0 0.00033(8) 0
O1 O2- 0.0040(5) 0.0055(5) 0.0051(4) 0 0.0002(4) 0
O2 O2- 0.0062(5) 0.0074(6) 0.0050(4) 0 -0.0010(4) 0
O3 O2- 0.0078(6) 0.0052(5) 0.0046(4) 0 0.0007(4) 0
O4 O2- 0.0071(6) 0.0079(6) 0.0054(5) 0 0.0000(4) 0
O5 O2- 0.0039(5) 0.0044(5) 0.0105(5) 0 -0.0013(4) 0
#End of TTdata_59979-ICSD