
#(C) 2019 by FIZ Karlsruhe - Leibniz Institute for Information Infrastructure.  All rights reserved.
data_60008-ICSD
_database_code_ICSD 60008
_audit_creation_date 1986-12-03
_audit_update_record 2008-08-01
_chemical_name_systematic 'Dicesium sodium tris(dicyanoaurate)'
_chemical_formula_structural 'Cs2 Na (Au (C N)2)3'
_chemical_formula_sum 'C6 Au3 Cs2 N6 Na1'
_exptl_crystal_density_diffrn 4.36
_publ_section_title

;
Dicesium sodium dicyanoaurate(I), (Cs2 Na (Au (C N)2)3). Crystal-chemical
relationship to potassium dicyanoaurate(I) and -argentate(I)
;
loop_
_citation_id
_citation_journal_full
_citation_year
_citation_journal_volume
_citation_page_first
_citation_page_last
_citation_journal_id_ASTM
primary 'Acta Crystallographica, Section C: Crystal Structure Communications'
1984 40 1770 1772 ACSCEE
loop_
_publ_author_name
'Blom, N.'
'Ludi, A.'
'Buergi, H.B.'
_cell_length_a 7.0679(7)
_cell_length_b 7.0679(7)
_cell_length_c 18.2566(56)
_cell_angle_alpha 90.
_cell_angle_beta 90.
_cell_angle_gamma 120.
_cell_volume 789.83
_cell_formula_units_Z 2
_symmetry_space_group_name_H-M 'P 63/m m c'
_symmetry_Int_Tables_number 194
_refine_ls_R_factor_all 0.032
loop_
_symmetry_equiv_pos_site_id
_symmetry_equiv_pos_as_xyz
1 'x, x-y, -z+1/2'
2 '-x+y, y, -z+1/2'
3 '-y, -x, -z+1/2'
4 '-x+y, -x, -z+1/2'
5 '-y, x-y, -z+1/2'
6 'x, y, -z+1/2'
7 '-x, -x+y, z+1/2'
8 'x-y, -y, z+1/2'
9 'y, x, z+1/2'
10 'x-y, x, z+1/2'
11 'y, -x+y, z+1/2'
12 '-x, -y, z+1/2'
13 '-x, -x+y, -z'
14 'x-y, -y, -z'
15 'y, x, -z'
16 'x-y, x, -z'
17 'y, -x+y, -z'
18 '-x, -y, -z'
19 'x, x-y, z'
20 '-x+y, y, z'
21 '-y, -x, z'
22 '-x+y, -x, z'
23 '-y, x-y, z'
24 'x, y, z'
loop_
_atom_type_symbol
_atom_type_oxidation_number
Na1+ 1
Cs1+ 1
Au1+ 1
C2+ 2
N3- -3
loop_
_atom_site_label
_atom_site_type_symbol
_atom_site_symmetry_multiplicity
_atom_site_Wyckoff_symbol
_atom_site_fract_x
_atom_site_fract_y
_atom_site_fract_z
_atom_site_B_iso_or_equiv
_atom_site_occupancy
_atom_site_attached_hydrogens
Na1 Na1+ 2 a 0 0 0.5 . 1. 0
Cs1 Cs1+ 4 f 0.3333 0.6667 0.5604(1) . 1. 0
Au1 Au1+ 6 h 0.1707(1) 0.3414(2) 0.25 . 1. 0
C1 C2+ 12 k 0.1683(6) 0.3366(12) 0.3564(7) 0.037(2) 1. 0
N1 N3- 12 k 0.1646(7) 0.3292(14) 0.4189(9) 0.068(4) 1. 0
loop_
_atom_site_aniso_label
_atom_site_aniso_type_symbol
_atom_site_aniso_U_11
_atom_site_aniso_U_22
_atom_site_aniso_U_33
_atom_site_aniso_U_12
_atom_site_aniso_U_13
_atom_site_aniso_U_23
Na1 Na1+ 0.042(3) 0.042(3) 0.031(4) 0.021(1) 0 0
Cs1 Cs1+ 0.0458(5) 0.0458(5) 0.0455(7) 0.0229(3) 0 0
Au1 Au1+ 0.0472(4) 0.0467(4) 0.0358(4) 0.0234(2) 0 0
#End of TTdata_60008-ICSD