
#(C) 2019 by FIZ Karlsruhe - Leibniz Institute for Information Infrastructure.  All rights reserved.
data_60502-ICSD
_database_code_ICSD 60502
_audit_creation_date 1986-12-03
_audit_update_record 1997-11-10
_chemical_name_systematic 'Hexasodium tricalcium cyclohexasilicate'
_chemical_formula_structural 'Na6 Ca3 Si6 O18'
_chemical_formula_sum 'Ca3 Na6 O18 Si6'
_chemical_name_mineral 'Combeite high'
_exptl_crystal_density_diffrn 2.83
_cell_measurement_temperature 293.
_publ_section_title 'Structure of Na2 Ca Si2 O6'
loop_
_citation_id
_citation_journal_full
_citation_year
_citation_journal_volume
_citation_page_first
_citation_page_last
_citation_journal_id_ASTM
primary 'Acta Crystallographica, Section C: Crystal Structure Communications'
1985 41 1575 1577 ACSCEE
loop_
_publ_author_name
'Ohsato, H.'
'Maki, I.'
'Takeuchi, Y.'
_cell_length_a 10.500(2)
_cell_length_b 10.500(2)
_cell_length_c 13.184(1)
_cell_angle_alpha 90.
_cell_angle_beta 90.
_cell_angle_gamma 120.
_cell_volume 1258.8
_cell_formula_units_Z 3
_symmetry_space_group_name_H-M 'R -3 m H'
_symmetry_Int_Tables_number 166
_refine_ls_R_factor_all 0.042
loop_
_symmetry_equiv_pos_site_id
_symmetry_equiv_pos_as_xyz
1 'x-y, -y, -z'
2 '-x, -x+y, -z'
3 'y, x, -z'
4 'x-y, x, -z'
5 'y, -x+y, -z'
6 '-x, -y, -z'
7 '-x+y, y, z'
8 'x, x-y, z'
9 '-y, -x, z'
10 '-x+y, -x, z'
11 '-y, x-y, z'
12 'x, y, z'
13 'x-y+2/3, -y+1/3, -z+1/3'
14 '-x+2/3, -x+y+1/3, -z+1/3'
15 'y+2/3, x+1/3, -z+1/3'
16 'x-y+2/3, x+1/3, -z+1/3'
17 'y+2/3, -x+y+1/3, -z+1/3'
18 '-x+2/3, -y+1/3, -z+1/3'
19 '-x+y+2/3, y+1/3, z+1/3'
20 'x+2/3, x-y+1/3, z+1/3'
21 '-y+2/3, -x+1/3, z+1/3'
22 '-x+y+2/3, -x+1/3, z+1/3'
23 '-y+2/3, x-y+1/3, z+1/3'
24 'x+2/3, y+1/3, z+1/3'
25 'x-y+1/3, -y+2/3, -z+2/3'
26 '-x+1/3, -x+y+2/3, -z+2/3'
27 'y+1/3, x+2/3, -z+2/3'
28 'x-y+1/3, x+2/3, -z+2/3'
29 'y+1/3, -x+y+2/3, -z+2/3'
30 '-x+1/3, -y+2/3, -z+2/3'
31 '-x+y+1/3, y+2/3, z+2/3'
32 'x+1/3, x-y+2/3, z+2/3'
33 '-y+1/3, -x+2/3, z+2/3'
34 '-x+y+1/3, -x+2/3, z+2/3'
35 '-y+1/3, x-y+2/3, z+2/3'
36 'x+1/3, y+2/3, z+2/3'
loop_
_atom_type_symbol
_atom_type_oxidation_number
O2- -2
Si4+ 4
Na1+ 1
Ca2+ 2
loop_
_atom_site_label
_atom_site_type_symbol
_atom_site_symmetry_multiplicity
_atom_site_Wyckoff_symbol
_atom_site_fract_x
_atom_site_fract_y
_atom_site_fract_z
_atom_site_B_iso_or_equiv
_atom_site_occupancy
_atom_site_attached_hydrogens
O1 O2- 36 i 0.2533(6) 0.0131(6) 0.5147(3) . 0.5 0
O2 O2- 18 h 0.1161(1) -.1161(1) 0.6734(2) . 1. 0
O3 O2- 18 h 0.2373(1) -.2373(1) 0.5510(2) . 1. 0
Si1 Si4+ 18 h 0.1502(1) -.1502(1) 0.5636(1) . 1. 0
Na1 Na1+ 6 c 0 0 0.2485(1) . 0.705 0
Na2 Na1+ 9 e 0.5 0 0 . 0.972 0
Na3 Na1+ 9 d 0.5 0 0.5 . 0.501 0
Ca1 Ca2+ 6 c 0 0 0.2485(1) . 0.295 0
Ca2 Ca2+ 9 d 0.5 0 0.5 . 0.499 0
Ca3 Ca2+ 3 a 0 0 0 . 1. 0
loop_
_atom_site_aniso_label
_atom_site_aniso_type_symbol
_atom_site_aniso_beta_11
_atom_site_aniso_beta_22
_atom_site_aniso_beta_33
_atom_site_aniso_beta_12
_atom_site_aniso_beta_13
_atom_site_aniso_beta_23
O1 O2- 0.01408(63) 0.00249(43) 0.00215(23) 0.00085(40) -.00072(27) 0.00129(23)
O2 O2- 0.01520(42) 0.01520(42) 0.00081(7) 0.01348(44) 0.00019(5) -.00019(5)
O3 O2- 0.01427(41) 0.01427(41) 0.00150(9) 0.01311(43) 0.00008(5) -.00008(5)
Si1 Si4+ 0.00180(4) 0.00180(4) 0.00068(2) 0.00071(4) -.00008(1) 0.00008(1)
Na1 Na1+ 0.00322(11) 0.00322(11) 0.00145(7) 0.00161(6) 0 0
Na2 Na1+ 0.00873(24) 0.01300(44) 0.00194(10) 0.00650(22) 0.00120(8) 0.00239(16)
Na3 Na1+ 0.00432(31) 0.00557(13) 0.00123(15) 0.00279(6) -.00047(3) -.00094(5)
Ca1 Ca2+ 0.00322(11) 0.00322(11) 0.00145(7) 0.00161(6) 0 0
Ca2 Ca2+ 0.00432(31) 0.00557(13) 0.00123(15) 0.00279(6) -.00047(3) -.00094(5)
Ca3 Ca2+ 0.00289(6) 0.00289(6) 0.00074(4) 0.00144(3) 0 0
#End of TTdata_60502-ICSD