
#(C) 2019 by FIZ Karlsruhe - Leibniz Institute for Information Infrastructure.  All rights reserved.
data_60841-ICSD
_database_code_ICSD 60841
_audit_creation_date 1988-02-22
_chemical_name_systematic
'Manganese(II) trisodium tripolyphosphate dodecahydrate'
_chemical_formula_structural 'Mn Na3 P3 O10 (H2 O)12'
_chemical_formula_sum 'H24 Mn1 Na3 O22 P3'
_chemical_name_structure_type CdNa3P3O10(H2O)12
_exptl_crystal_density_diffrn 1.89
_publ_section_title
'Structure of manganese(II) trisodium tripolyphosphate dodecahydrate'
loop_
_citation_id
_citation_journal_full
_citation_year
_citation_journal_volume
_citation_page_first
_citation_page_last
_citation_journal_id_ASTM
primary 'Acta Crystallographica, Section C: Crystal Structure Communications'
1987 43 4 7 ACSCEE
loop_
_publ_author_name
'Lightfoot, P.'
'Cheetham, A.K.'
_cell_length_a 14.763(2)
_cell_length_b 9.325(4)
_cell_length_c 15.140(4)
_cell_angle_alpha 90.
_cell_angle_beta 89.87(2)
_cell_angle_gamma 90.
_cell_volume 2084.24
_cell_formula_units_Z 4
_symmetry_space_group_name_H-M 'P 1 21/n 1'
_symmetry_Int_Tables_number 14
_refine_ls_R_factor_all 0.035
loop_
_symmetry_equiv_pos_site_id
_symmetry_equiv_pos_as_xyz
1 '-x+1/2, y+1/2, -z+1/2'
2 '-x, -y, -z'
3 'x+1/2, -y+1/2, z+1/2'
4 'x, y, z'
loop_
_atom_type_symbol
_atom_type_oxidation_number
Mn2+ 2
P5+ 5
Na1+ 1
O2- -2
H1+ 1
loop_
_atom_site_label
_atom_site_type_symbol
_atom_site_symmetry_multiplicity
_atom_site_Wyckoff_symbol
_atom_site_fract_x
_atom_site_fract_y
_atom_site_fract_z
_atom_site_B_iso_or_equiv
_atom_site_occupancy
_atom_site_attached_hydrogens
Mn1 Mn2+ 4 e 0.25136(5) 0.04405(8) 0.81774(5) . 1. 0
P1 P5+ 4 e 0.39221(8) 0.2766(1) 0.91092(8) . 1. 0
P2 P5+ 4 e 0.09508(9) 0.2697(1) 0.90466(8) . 1. 0
P3 P5+ 4 e 0.24157(9) 0.1550(1) 1.01758(8) . 1. 0
Na1 Na1+ 4 e -.1438(1) 0.4642(2) 0.7092(1) . 1. 0
Na2 Na1+ 4 e 0.1134(2) 0.1944(3) 0.1999(2) . 1. 0
Na3 Na1+ 4 e -.7534(1) 0.2642(2) 0.5628(1) . 1. 0
O1 O2- 4 e 0.3578(2) 0.1968(4) 0.8300(2) . 1. 0
O2 O2- 4 e 0.2509(2) 0.0220(4) 0.9632(2) . 1. 0
O3 O2- 4 e 0.1429(3) -.3666(4) 0.0165(3) . 1. 0
O4 O2- 4 e 0.0953(2) 0.4308(4) 0.8962(2) . 1. 0
O5 O2- 4 e 0.1477(2) 0.3635(4) 0.6787(2) . 1. 0
O6 O2- 4 e 0.4023(2) 0.4355(4) 0.8938(2) . 1. 0
O7 O2- 4 e -.0130(3) 0.6050(5) 0.7854(3) . 1. 0
O8 O2- 4 e 0.2491(2) 0.5497(4) 0.8262(2) . 1. 0
O9 O2- 4 e 0.0059(3) 0.0829(4) 0.1048(3) . 1. 0
O10 O2- 4 e 0.1456(2) 0.1970(4) 0.8300(2) . 1. 0
O11 O2- 4 e 0.6291(3) 0.3501(5) 0.9839(3) . 1. 0
O12 O2- 4 e -.1566(2) 0.1394(4) 0.1790(2) . 1. 0
O13 O2- 4 e 0.4739(2) 0.2056(4) 0.9503(2) . 1. 0
O14 O2- 4 e 0.3126(3) 0.2710(4) 0.9847(2) . 1. 0
O15 O2- 4 e 0.2457(2) 0.1457(4) 1.1148(2) . 1. 0
O16 O2- 4 e 0.0021(2) 0.2072(4) 0.9219(2) . 1. 0
O17 O2- 4 e 0.1492(2) 0.2335(4) 0.9960(2) . 1. 0
O18 O2- 4 e -.0182(3) 0.4371(5) 0.6092(2) . 1. 0
O19 O2- 4 e 0.0681(3) 0.0143(5) 0.3109(3) . 1. 0
O20 O2- 4 e 0.2235(4) -.5287(6) 0.1571(3) . 1. 0
O21 O2- 4 e 0.1962(3) 0.2955(5) 0.3235(3) . 1. 0
O22 O2- 4 e 0.1194(3) -.2350(4) 0.2216(3) . 1. 0
H1 H1+ 4 e 0.020(4) 0.538(6) 0.821(4) . 1. 0
H2 H1+ 4 e 0.262(2) 0.296(7) 0.324(5) . 1. 0
H3 H1+ 4 e 0.083(4) -.213(7) 0.173(3) . 1. 0
H4 H1+ 4 e 0.576(3) 0.296(6) 0.967(5) . 1. 0
H5 H1+ 4 e -.102(3) 0.132(8) 0.148(4) . 1. 0
H6 H1+ 4 e 0.176(4) 0.227(6) 0.367(4) . 1. 0
H7 H1+ 4 e 0.194(4) -.487(8) 0.108(3) . 1. 0
H8 H1+ 4 e 0.118(4) -.435(6) -.024(4) . 1. 0
H9 H1+ 4 e 0.133(4) 0.320(8) 0.732(3) . 1. 0
H10 H1+ 4 e 0.608(4) 0.423(6) 1.020(4) . 1. 0
H11 H1+ 4 e 0.103(5) -.170(6) 0.265(3) . 1. 0
H12 H1+ 4 e 0.407(3) 0.179(7) 0.461(4) . 1. 0
H13 H1+ 4 e 0.855(4) 0.185(8) 0.232(3) . 1. 0
H14 H1+ 4 e 0.296(3) 0.497(7) 0.852(4) . 1. 0
H15 H1+ 4 e 0.093(3) 0.392(8) 0.653(4) . 1. 0
H16 H1+ 4 e 0.194(3) 0.515(7) 0.848(4) . 1. 0
H17 H1+ 4 e 0.004(2) 0.007(8) 0.325(4) . 1. 0
H18 H1+ 4 e 0.010(5) 0.114(6) 0.045(2) . 1. 0
H19 H1+ 4 e 0.781(2) 0.08(1) 0.637(4) . 1. 0
H20 H1+ 4 e 0.022(4) 0.620(7) 0.733(3) . 1. 0
H21 H1+ 4 e 0.977(5) 0.014(4) 0.892(4) . 1. 0
H22 H1+ 4 e -.026(5) 0.383(6) 0.558(3) . 1. 0
H23 H1+ 4 e -.006(5) 0.532(4) 0.591(4) . 1. 0
H24 H1+ 4 e 0.095(4) 0.032(9) 0.367(3) . 1. 0
loop_
_atom_site_aniso_label
_atom_site_aniso_type_symbol
_atom_site_aniso_U_11
_atom_site_aniso_U_22
_atom_site_aniso_U_33
_atom_site_aniso_U_12
_atom_site_aniso_U_13
_atom_site_aniso_U_23
Mn1 Mn2+ 0.0173(4) 0.0116(4) 0.0170(4) -.0007(4) 0.0009(3) 0.0000(3)
P1 P5+ 0.0155(6) 0.0123(7) 0.0191(7) 0.0006(6) -.0003(5) -.0017(5)
P2 P5+ 0.0148(6) 0.0135(7) 0.0175(6) 0.0004(6) 0.0007(5) 0.0010(5)
P3 P5+ 0.0158(6) 0.0157(7) 0.0152(6) -.0006(6) 0.0003(5) 0.0002(5)
Na1 Na1+ 0.030(1) 0.025(1) 0.031(1) -.004(1) -.0006(9) -.001(1)
Na2 Na1+ 0.029(1) 0.049(2) 0.043(1) -.017(1) 0.004(1) 0.002(1)
Na3 Na1+ 0.028(1) 0.021(1) 0.034(1) -.006(1) 0.0001(9) 0.0014(9)
O1 O2- 0.020(2) 0.018(2) 0.021(2) 0.000(2) 0.001(1) -.002(2)
O2 O2- 0.028(2) 0.014(2) 0.018(2) -.001(2) 0.001(2) 0.000(2)
O3 O2- 0.027(2) 0.029(2) 0.033(2) -.008(2) 0.006(2) -.002(2)
O4 O2- 0.027(2) 0.012(2) 0.029(2) 0.001(2) 0.001(2) 0.002(2)
O5 O2- 0.022(2) 0.019(2) 0.025(2) 0.004(2) 0.001(2) -.002(2)
O6 O2- 0.025(2) 0.012(2) 0.030(3) 0.002(2) 0.000(2) -.001(2)
O7 O2- 0.033(2) 0.032(2) 0.038(2) 0.001(2) -.003(2) 0.003(2)
O8 O2- 0.021(2) 0.021(2) 0.021(2) 0.004(2) 0.001(1) 0.002(2)
O9 O2- 0.036(2) 0.025(2) 0.032(2) -.003(2) 0.009(2) -.005(2)
O10 O2- 0.027(2) 0.018(2) 0.019(2) 0.001(2) 0.001(2) 0.006(2)
O11 O2- 0.025(2) 0.031(2) 0.033(2) -.010(2) 0.001(2) -.003(2)
O12 O2- 0.019(2) 0.021(2) 0.024(2) -.004(2) -.001(2) -.004(2)
O13 O2- 0.026(2) 0.021(2) 0.039(2) 0.002(2) -.009(2) 0.001(2)
O14 O2- 0.035(2) 0.028(2) 0.031(2) -.011(2) 0.015(2) -.016(2)
O15 O2- 0.022(2) 0.033(2) 0.018(2) 0.000(2) 0.000(1) 0.007(2)
O16 O2- 0.018(2) 0.020(2) 0.032(2) -.004(2) 0.003(2) -.002(2)
O17 O2- 0.027(2) 0.029(2) 0.019(2) -.002(2) -.002(2) 0.012(2)
O18 O2- 0.033(2) 0.029(2) 0.028(2) -.003(2) 0.001(2) -.007(2)
O19 O2- 0.031(2) 0.040(3) 0.049(3) -.012(2) 0.003(2) 0.001(2)
O20 O2- 0.068(4) 0.040(3) 0.035(2) -.004(2) 0.002(2) 0.018(3)
O21 O2- 0.032(2) 0.032(2) 0.037(2) 0.006(2) 0.000(2) -.001(2)
O22 O2- 0.035(2) 0.030(2) 0.032(2) -.004(2) -.006(2) 0.005(2)
#End of TTdata_60841-ICSD