
#(C) 2019 by FIZ Karlsruhe - Leibniz Institute for Information Infrastructure.  All rights reserved.
data_61046-ICSD
_database_code_ICSD 61046
_audit_creation_date 1986-12-03
_audit_update_record 2012-08-01
_chemical_name_systematic 'Sodium hydroxide'
_chemical_formula_structural 'Na (O H)'
_chemical_formula_sum 'H1 Na1 O1'
_chemical_name_structure_type NaOH
_exptl_crystal_density_diffrn 2.04
_cell_measurement_temperature 147.
_publ_section_title

;
Hydroxide des Natriums, Kaliums und Rubidiums: Einkristallzuechtungen und
roentgenographische Strukturbestimmung an der bei Raumtemperatur stabilen
Modifikation
;
loop_
_citation_id
_citation_journal_full
_citation_year
_citation_journal_volume
_citation_page_first
_citation_page_last
_citation_journal_id_ASTM
primary 'Zeitschrift fuer Anorganische und Allgemeine Chemie (1950) (DE)' 1985
531 119 124 ZAACAB
loop_
_publ_author_name
'Jacobs, H.'
'Kockelkorn, J.'
'Tacke, T.'
_cell_length_a 3.389(1)
_cell_length_b 11.334(11)
_cell_length_c 3.383(2)
_cell_angle_alpha 90.
_cell_angle_beta 90.
_cell_angle_gamma 90.
_cell_volume 129.94
_cell_formula_units_Z 4
_symmetry_space_group_name_H-M 'C m c m'
_symmetry_Int_Tables_number 63
_refine_ls_R_factor_all 0.04
loop_
_symmetry_equiv_pos_site_id
_symmetry_equiv_pos_as_xyz
1 '-x, y, -z+1/2'
2 '-x, -y, z+1/2'
3 '-x, y, z'
4 '-x, -y, -z'
5 'x, -y, z+1/2'
6 'x, y, -z+1/2'
7 'x, -y, -z'
8 'x, y, z'
9 '-x+1/2, y+1/2, -z+1/2'
10 '-x+1/2, -y+1/2, z+1/2'
11 '-x+1/2, y+1/2, z'
12 '-x+1/2, -y+1/2, -z'
13 'x+1/2, -y+1/2, z+1/2'
14 'x+1/2, y+1/2, -z+1/2'
15 'x+1/2, -y+1/2, -z'
16 'x+1/2, y+1/2, z'
loop_
_atom_type_symbol
_atom_type_oxidation_number
Na1+ 1
O2- -2
H1+ 1
loop_
_atom_site_label
_atom_site_type_symbol
_atom_site_symmetry_multiplicity
_atom_site_Wyckoff_symbol
_atom_site_fract_x
_atom_site_fract_y
_atom_site_fract_z
_atom_site_B_iso_or_equiv
_atom_site_occupancy
_atom_site_attached_hydrogens
Na1 Na1+ 4 c 0 0.3377(2) 0.25 . 1. 0
O1 O2- 4 c 0 0.1345(4) 0.25 . 1. 0
H1 H1+ 4 c 0 0.055(7) 0.25 0.001(2) 1. 0
loop_
_atom_site_aniso_label
_atom_site_aniso_type_symbol
_atom_site_aniso_U_11
_atom_site_aniso_U_22
_atom_site_aniso_U_33
_atom_site_aniso_U_12
_atom_site_aniso_U_13
_atom_site_aniso_U_23
Na1 Na1+ 0.001(1) 0.013(1) 0.012(1) 0 0 0
O1 O2- 0.002(2) 0.012(2) 0.014(2) 0 0 0
#End of TTdata_61046-ICSD