
#(C) 2019 by FIZ Karlsruhe - Leibniz Institute for Information Infrastructure.  All rights reserved.
data_61164-ICSD
_database_code_ICSD 61164
_audit_creation_date 1986-12-03
_audit_update_record 2010-02-01
_chemical_name_systematic 'Calcium sodium pentaborate'
_chemical_formula_structural 'Ca Na (B5 O9)'
_chemical_formula_sum 'B5 Ca1 Na1 O9'
_chemical_name_structure_type NaCaB5O9
_exptl_crystal_density_diffrn 2.6
_cell_measurement_temperature 295.
_publ_section_title 'Structure of calcium sodium pentaborate'
loop_
_citation_id
_citation_journal_full
_citation_year
_citation_journal_volume
_citation_page_first
_citation_page_last
_citation_journal_id_ASTM
primary 'Acta Crystallographica, Section C: Crystal Structure Communications'
1985 41 1394 1396 ACSCEE
loop_
_publ_author_name
'Fayos, J.'
'Howie, R.A.'
'Glasser, F.P.'
_cell_length_a 6.463(5)
_cell_length_b 13.932(11)
_cell_length_c 7.858(6)
_cell_angle_alpha 90.
_cell_angle_beta 109.55(5)
_cell_angle_gamma 90.
_cell_volume 666.76
_cell_formula_units_Z 4
_symmetry_space_group_name_H-M 'P 1 21/c 1'
_symmetry_Int_Tables_number 14
_refine_ls_R_factor_all 0.064
loop_
_symmetry_equiv_pos_site_id
_symmetry_equiv_pos_as_xyz
1 'x, -y+1/2, z+1/2'
2 '-x, -y, -z'
3 '-x, y+1/2, -z+1/2'
4 'x, y, z'
loop_
_atom_type_symbol
_atom_type_oxidation_number
Ca2+ 2
Na1+ 1
Ca2+ 2
O2- -2
B3+ 3
loop_
_atom_site_label
_atom_site_type_symbol
_atom_site_symmetry_multiplicity
_atom_site_Wyckoff_symbol
_atom_site_fract_x
_atom_site_fract_y
_atom_site_fract_z
_atom_site_B_iso_or_equiv
_atom_site_occupancy
_atom_site_attached_hydrogens
Ca1 Ca2+ 4 e 0.09497 0.23791 0.56952 . 0.83 0
Na1 Na1+ 4 e 0.09497 0.23791 0.56952 . 0.17 0
Na2 Na1+ 4 e 0.4738 0.58918 0.66322 . 0.83 0
Ca2 Ca2+ 4 e 0.4738 0.58918 0.66322 . 0.17 0
O1 O2- 4 e 0.83816 0.65162 0.64482 1.695 1. 0
O2 O2- 4 e 0.13263 0.53924 0.70181 0.7372 1. 0
O3 O2- 4 e 0.43829 0.44273 0.80591 0.6341 1. 0
O4 O2- 4 e 0.08814 0.37745 0.78418 0.9619 1. 0
O5 O2- 4 e 0.77095 0.48421 0.65938 0.956 1. 0
O6 O2- 4 e 0.79863 0.37119 0.90394 0.6394 1. 0
O7 O2- 4 e 0.74577 0.31377 0.6024 0.9054 1. 0
O8 O2- 4 e 0.52566 0.16962 0.54451 0.7691 1. 0
O9 O2- 4 e 0.48313 0.27659 0.74884 0.7246 1. 0
B1 B3+ 4 e 0.91101 0.56095 0.67054 0.2297 1. 0
B2 B3+ 4 e 0.2213 0.45136 0.76922 0.2297 1. 0
B3 B3+ 4 e 0.84589 0.39 0.74096 0.2297 1. 0
B4 B3+ 4 e 0.59061 0.25433 0.62962 0.2297 1. 0
B5 B3+ 4 e 0.56659 0.1426 0.37899 0.2297 1. 0
loop_
_atom_site_aniso_label
_atom_site_aniso_type_symbol
_atom_site_aniso_beta_11
_atom_site_aniso_beta_22
_atom_site_aniso_beta_33
_atom_site_aniso_beta_12
_atom_site_aniso_beta_13
_atom_site_aniso_beta_23
Ca1 Ca2+ 0.00889 0.00177 0.00452 -.00073 -.00111 0.00022
Na1 Na1+ 0.00887 0.00178 0.00451 -.00068 -.00114 0.00025
Na2 Na1+ 0.00391 0.0011 0.00546 0.00041 0.00102 0.00125
Ca2 Ca2+ 0.00397 0.00111 0.00541 0.00142 0.00119 0.00119
#End of TTdata_61164-ICSD