
#(C) 2019 by FIZ Karlsruhe - Leibniz Institute for Information Infrastructure.  All rights reserved.
data_61206-ICSD
_database_code_ICSD 61206
_audit_creation_date 1986-12-03
_audit_update_record 2000-07-15
_chemical_name_systematic 'Disodium pentafluoromanganate(III)'
_chemical_formula_structural 'Na2 (Mn F5)'
_chemical_formula_sum 'F5 Mn1 Na2'
_chemical_name_structure_type Ca2UO5
_exptl_crystal_density_diffrn 3.13
_cell_measurement_temperature 295.
_publ_section_title 'Struktur von Natrium-pentafluoromanganat(III)'
loop_
_citation_id
_citation_journal_full
_citation_year
_citation_journal_volume
_citation_page_first
_citation_page_last
_citation_journal_id_ASTM
primary 'Acta Crystallographica, Section C: Crystal Structure Communications'
1986 42 644 647 ACSCEE
loop_
_publ_author_name
'Massa, W.'
_cell_length_a 7.719(1)
_cell_length_b 5.236(1)
_cell_length_c 10.862(2)
_cell_angle_alpha 90.
_cell_angle_beta 108.99(1)
_cell_angle_gamma 90.
_cell_volume 415.11
_cell_formula_units_Z 4
_symmetry_space_group_name_H-M 'P 1 21/c 1'
_symmetry_Int_Tables_number 14
_refine_ls_R_factor_all 0.027
loop_
_symmetry_equiv_pos_site_id
_symmetry_equiv_pos_as_xyz
1 'x, -y+1/2, z+1/2'
2 '-x, -y, -z'
3 '-x, y+1/2, -z+1/2'
4 'x, y, z'
loop_
_atom_type_symbol
_atom_type_oxidation_number
Mn3+ 3
Na1+ 1
F1- -1
loop_
_atom_site_label
_atom_site_type_symbol
_atom_site_symmetry_multiplicity
_atom_site_Wyckoff_symbol
_atom_site_fract_x
_atom_site_fract_y
_atom_site_fract_z
_atom_site_B_iso_or_equiv
_atom_site_occupancy
_atom_site_attached_hydrogens
Mn1 Mn3+ 2 a 0 0 0 . 1. 0
Mn2 Mn3+ 2 b 0.5 0 0 . 1. 0
Na1 Na1+ 4 e 0.1523(1) -.0075(1) 0.3656(1) . 1. 0
Na2 Na1+ 4 e 0.3441(1) 0.4441(1) 0.1799(1) . 1. 0
F1 F1- 4 e 0.0459(1) 0.1523(2) 0.1634(1) . 1. 0
F2 F1- 4 e -.1082(1) 0.2971(2) -.0757(1) . 1. 0
F3 F1- 4 e 0.2507(1) 0.1621(2) 0.0032(1) . 1. 0
F4 F1- 4 e 0.6182(1) 0.2179(2) 0.1341(1) . 1. 0
F5 F1- 4 e 0.4917(1) 0.2451(2) -.1243(1) . 1. 0
loop_
_atom_site_aniso_label
_atom_site_aniso_type_symbol
_atom_site_aniso_U_11
_atom_site_aniso_U_22
_atom_site_aniso_U_33
_atom_site_aniso_U_12
_atom_site_aniso_U_13
_atom_site_aniso_U_23
Mn1 Mn3+ 0.0096(1) 0.0100(1) 0.0103(1) 0.0003(1) 0.0022(1) 0.0001(1)
Mn2 Mn3+ 0.0100(1) 0.0102(1) 0.0093(1) -.0002(1) 0.0029(1) 0.0002(1)
Na1 Na1+ 0.0287(3) 0.0185(3) 0.0199(2) 0.0020(3) 0.0057(2) 0.0001(2)
Na2 Na1+ 0.0256(3) 0.0192(3) 0.0156(2) 0.0007(2) 0.0023(2) 0.0009(2)
F1 F1- 0.0279(4) 0.0256(4) 0.0129(3) 0.0020(4) 0.0059(3) -.0033(3)
F2 F1- 0.0178(4) 0.0153(3) 0.0274(4) 0.0023(3) 0.0001(3) 0.0057(3)
F3 F1- 0.0128(3) 0.0172(3) 0.0247(3) 0.0002(3) 0.0074(3) -.0005(3)
F4 F1- 0.0204(4) 0.0190(3) 0.0155(3) -.0038(3) 0.0025(3) -.0053(3)
F5 F1- 0.0270(4) 0.0190(4) 0.0165(3) -.0027(3) 0.0075(3) 0.0044(3)
#End of TTdata_61206-ICSD