
#(C) 2019 by FIZ Karlsruhe - Leibniz Institute for Information Infrastructure.  All rights reserved.
data_61211-ICSD
_database_code_ICSD 61211
_audit_creation_date 1986-12-03
_chemical_name_systematic 'Sodium diiron hydroxobis(sulfate) hydrate'
_chemical_formula_structural 'Na Fe2 O H (S O3)2 (H2 O)'
_chemical_formula_sum 'H3 Fe2 Na1 O8 S2'
_chemical_name_structure_type NaMgOH(SO3)2H2O
_exptl_crystal_density_diffrn 2.96
_publ_section_title

;
Kristallstrukturen von Na Mg2 O H (S O3)2 (H2 O), Na Mn2 O H (S O3)2 (H2 O),
Na Fe2 O H (S O3)2 (H2 O), Na Co2 O H (S O3)2 (H2 O) und Na Zn2 O H (S O3)2
(H2 O)
;
loop_
_citation_id
_citation_journal_full
_citation_year
_citation_journal_volume
_citation_page_first
_citation_page_last
_citation_journal_id_ASTM
primary

;
Zeitschrift fuer Naturforschung, Teil B: Anorganische Chemie, Organische
Chemie
; 1986 41 852 858 ZNBAD2
loop_
_publ_author_name
'Buchmeier, W.'
'Engelen, B.'
'Lutz, H.D.'
_cell_length_a 8.988(1)
_cell_length_b 7.890(1)
_cell_length_c 6.348(1)
_cell_angle_alpha 112.06(1)
_cell_angle_beta 109.59(1)
_cell_angle_gamma 99.76(1)
_cell_volume 369.88
_cell_formula_units_Z 2
_symmetry_space_group_name_H-M 'P -1'
_symmetry_Int_Tables_number 2
_refine_ls_R_factor_all 0.025
loop_
_symmetry_equiv_pos_site_id
_symmetry_equiv_pos_as_xyz
1 '-x, -y, -z'
2 'x, y, z'
loop_
_atom_type_symbol
_atom_type_oxidation_number
Fe2+ 2
Na1+ 1
S4+ 4
O2- -2
H1+ 1
loop_
_atom_site_label
_atom_site_type_symbol
_atom_site_symmetry_multiplicity
_atom_site_Wyckoff_symbol
_atom_site_fract_x
_atom_site_fract_y
_atom_site_fract_z
_atom_site_B_iso_or_equiv
_atom_site_occupancy
_atom_site_attached_hydrogens
Fe1 Fe2+ 1 d 0.5 0 0 . 1. 0
Fe2 Fe2+ 1 f 0.5 0 0.5 . 1. 0
Fe3 Fe2+ 2 i 0.18882(4) 0.17014(4) 0.18289(5) . 1. 0
Na1 Na1+ 2 i 0.9121(2) 0.1770(2) 0.5615(3) . 1. 0
S1 S4+ 2 i 0.84405(6) 0.29897(7) 0.06215(9) . 1. 0
S2 S4+ 2 i 0.70264(7) -.25286(8) 0.24038(9) . 1. 0
O1 O2- 2 i 0.7263(2) 0.2536(3) 0.1753(3) . 1. 0
O2 O2- 2 i 0.2658(2) -.2495(2) 0.2103(3) . 1. 0
O3 O2- 2 i -.0737(2) 0.1405(2) 0.0340(3) . 1. 0
O4 O2- 2 i 0.6339(2) -.0820(2) 0.2676(3) . 1. 0
O5 O2- 2 i 0.1573(2) 0.1733(3) 0.4933(3) . 1. 0
O6 O2- 2 i 0.1967(2) 0.2431(3) -.0952(3) . 1. 0
O7 O2- 2 i 0.4301(2) 0.1478(2) 0.2926(3) . 1. 0
O8 O2- 2 i 0.2900(3) 0.4886(3) 0.4049(3) . 1. 0
H1 H1+ 2 i 0.492(5) 0.254(5) 0.378(7) . 1. 0
H2 H1+ 2 i 0.274(5) 0.539(5) 0.318(6) . 1. 0
H3 H1+ 2 i 0.274(5) 0.541(5) 0.522(7) . 1. 0
loop_
_atom_site_aniso_label
_atom_site_aniso_type_symbol
_atom_site_aniso_U_11
_atom_site_aniso_U_22
_atom_site_aniso_U_33
_atom_site_aniso_U_12
_atom_site_aniso_U_13
_atom_site_aniso_U_23
Fe1 Fe2+ 0.0115(1) 0.0163(1) 0.0096(1) 0.0067(1) 0.00544(9) 0.00747(9)
Fe2 Fe2+ 0.0114(1) 0.0165(1) 0.0103(1) 0.0068(1) 0.00554(9) 0.00824(9)
Fe3 Fe2+ 0.01201(9) 0.01430(9) 0.01001(7) 0.00653(7) 0.00519(6) 0.00661(6)
Na1 Na1+ 0.0204(4) 0.0274(5) 0.0432(5) 0.0100(4) 0.0174(3) 0.0136(4)
S1 S4+ 0.0111(1) 0.0110(1) 0.0113(1) 0.0041(1) 0.0047(1) 0.0050(1)
S2 S4+ 0.0137(2) 0.0137(2) 0.0119(1) 0.0049(1) 0.0046(1) 0.0065(1)
O1 O2- 0.0197(6) 0.0199(7) 0.0170(5) 0.0038(5) 0.0121(4) 0.0051(5)
O2 O2- 0.0170(6) 0.0173(5) 0.0139(5) 0.0039(5) 0.0032(4) 0.0093(4)
O3 O2- 0.0120(5) 0.0146(5) 0.0206(6) 0.0067(4) 0.0020(5) 0.0048(5)
O4 O2- 0.0190(5) 0.0237(5) 0.0165(5) 0.0136(4) 0.0093(4) 0.0127(4)
O5 O2- 0.0161(5) 0.0328(6) 0.0122(4) 0.0128(5) 0.0073(4) 0.0139(4)
O6 O2- 0.0381(6) 0.0452(7) 0.0221(5) 0.0303(5) 0.0229(4) 0.0242(4)
O7 O2- 0.0109(5) 0.0131(5) 0.0142(4) 0.0053(4) 0.0051(4) 0.0069(3)
O8 O2- 0.0322(7) 0.0148(6) 0.0156(5) 0.0081(5) 0.0115(5) 0.0070(4)
#End of TTdata_61211-ICSD