
#(C) 2019 by FIZ Karlsruhe - Leibniz Institute for Information Infrastructure.  All rights reserved.
data_61226-ICSD
_database_code_ICSD 61226
_audit_creation_date 1987-03-16
_audit_update_record 2015-02-01
_chemical_name_systematic 'Potassium disodium dioxoaurate'
_chemical_formula_structural 'K Na2 (Au O2)'
_chemical_formula_sum 'Au1 K1 Na2 O2'
_chemical_name_structure_type KNa2AuO2
_exptl_crystal_density_diffrn 4.65
_publ_section_title 'Das erste Oxoaurat(I) mit (O-Au-O)-Hanteln: K Na2 (Au O2)'
loop_
_citation_id
_citation_journal_full
_citation_year
_citation_journal_volume
_citation_page_first
_citation_page_last
_citation_journal_id_ASTM
primary 'Zeitschrift fuer Anorganische und Allgemeine Chemie (1950) (DE)' 1986
537 115 122 ZAACAB
loop_
_publ_author_name
'Wagner, G.'
'Hoppe, R.'
_cell_length_a 10.256(3)
_cell_length_b 5.472(2)
_cell_length_c 4.000(1)
_cell_angle_alpha 90.
_cell_angle_beta 90.
_cell_angle_gamma 90.
_cell_volume 224.48
_cell_formula_units_Z 2
_symmetry_space_group_name_H-M 'P n n m'
_symmetry_Int_Tables_number 58
_refine_ls_R_factor_all 0.062
loop_
_symmetry_equiv_pos_site_id
_symmetry_equiv_pos_as_xyz
1 'x+1/2, -y+1/2, z+1/2'
2 '-x+1/2, y+1/2, z+1/2'
3 'x, y, -z'
4 '-x, -y, -z'
5 '-x+1/2, y+1/2, -z+1/2'
6 'x+1/2, -y+1/2, -z+1/2'
7 '-x, -y, z'
8 'x, y, z'
loop_
_atom_type_symbol
_atom_type_oxidation_number
Au1+ 1
Na1+ 1
K1+ 1
O2- -2
loop_
_atom_site_label
_atom_site_type_symbol
_atom_site_symmetry_multiplicity
_atom_site_Wyckoff_symbol
_atom_site_fract_x
_atom_site_fract_y
_atom_site_fract_z
_atom_site_B_iso_or_equiv
_atom_site_occupancy
_atom_site_attached_hydrogens
Au1 Au1+ 2 a 0 0 0 . 1. 0
Na1 Na1+ 4 g 0.2648(5) 0.3996(12) 0 . 1. 0
K1 K1+ 2 d 0 0.5 0.5 . 1. 0
O1 O2- 4 g 0.1442(12) 0.7530(21) 0 . 1. 0
loop_
_atom_site_aniso_label
_atom_site_aniso_type_symbol
_atom_site_aniso_U_11
_atom_site_aniso_U_22
_atom_site_aniso_U_33
_atom_site_aniso_U_12
_atom_site_aniso_U_13
_atom_site_aniso_U_23
Au1 Au1+ 0.0263(6) 0.0166(6) 0.0225(6) 0.0027(4) 0 0
Na1 Na1+ 0.0106(24) 0.0080(28) 0.0111(21) 0.0071(13) 0 0
K1 K1+ 0.0505(38) 0.0160(25) 0.0196(25) 0.0138(23) 0 0
O1 O2- 0.0322(69) 0.0144(54) 0.0144(52) 0.0155(48) 0 0
#End of TTdata_61226-ICSD