
#(C) 2019 by FIZ Karlsruhe - Leibniz Institute for Information Infrastructure.  All rights reserved.
data_61329-ICSD
_database_code_ICSD 61329
_audit_creation_date 1987-03-16
_audit_update_record 2016-08-01
_chemical_name_systematic 'Sodium calcium tecto-alumosilicate *'
_chemical_formula_structural '(Na0.45 Ca0.55) (Al1.55 Si2.45 O8)'
_chemical_formula_sum 'Al1.55 Ca0.55 Na0.45 O8 Si2.45'
_chemical_name_structure_type Feldspar#-(TC,C1-,mod)-Anorthite
_chemical_name_mineral 'Anorthite, sodian'
_exptl_crystal_density_diffrn 2.69
_publ_section_title

;
Modulated structure of an intermediate plagioglase I. Model and computation
II. Numerical results and discussion
;
loop_
_citation_id
_citation_journal_full
_citation_year
_citation_journal_volume
_citation_page_first
_citation_page_last
_citation_journal_id_ASTM
primary

;
Acta Crystallographica, Section B: Structural Crystallography and Crystal
Chemistry
; 1976 32 521 538 ACBCAR
loop_
_publ_author_name
'Toman, K.'
'Frueh, A.J.jr.'
_cell_length_a 8.17(6)
_cell_length_b 12.86(2)
_cell_length_c 7.11(2)
_cell_angle_alpha 93.6(2)
_cell_angle_beta 116.3(1)
_cell_angle_gamma 89.8(1)
_cell_volume 668.13
_cell_formula_units_Z 4
_symmetry_space_group_name_H-M 'C -1'
_symmetry_Int_Tables_number 2
_refine_ls_R_factor_all 0.072
loop_
_symmetry_equiv_pos_site_id
_symmetry_equiv_pos_as_xyz
1 '-x, -y, -z'
2 'x, y, z'
3 '-x+1/2, -y+1/2, -z'
4 'x+1/2, y+1/2, z'
loop_
_atom_type_symbol
_atom_type_oxidation_number
Na1+ 1
Ca2+ 2
Al3+ 3
Si4+ 4
O2- -2
loop_
_atom_site_label
_atom_site_type_symbol
_atom_site_symmetry_multiplicity
_atom_site_Wyckoff_symbol
_atom_site_fract_x
_atom_site_fract_y
_atom_site_fract_z
_atom_site_B_iso_or_equiv
_atom_site_occupancy
_atom_site_attached_hydrogens
Na1 Na1+ 4 i 0.2685(9) -.0247(7) 0.1701(12) . 0.225 0
Na2 Na1+ 4 i 0.2692(9) 0.02484(4) 0.1029(10) . 0.225 0
Ca1 Ca2+ 4 i 0.2685(9) -.0247(7) 0.1701(12) . 0.275 0
Ca2 Ca2+ 4 i 0.2692(9) 0.02484(4) 0.1029(10) . 0.275 0
Al1 Al3+ 4 i 0.0042(9) 0.1667(5) 0.2111(12) 1.21(12) 0.32(7) 0
Al2 Al3+ 4 i 0.0084(9) 0.1633(5) 0.2167(10) 1.22(11) 0.32(7) 0
Al3 Al3+ 4 i 0.0034(8) 0.8171(5) 0.2337(10) 0.98(13) 0.16(7) 0
Al4 Al3+ 4 i 0.0037(8) 0.8189(5) 0.2303(10) 1.05(11) 0.16(7) 0
Al5 Al3+ 4 i 0.6878(8) 0.1099(5) 0.3167(10) 0.65(9) 0.12(7) 0
Al6 Al3+ 4 i 0.6854(8) 0.1097(5) 0.3179(10) 1.01(10) 0.16(7) 0
Al7 Al3+ 4 i 0.6825(8) 0.8799(5) 0.3569(10) 0.77(12) 0.12(7) 0
Al8 Al3+ 4 i 0.6830(8) 0.8798(5) 0.3585(10) 0.95(11) 0.19(7) 0
Si1 Si4+ 4 i 0.0042(9) 0.1667(5) 0.2111(12) 1.21(12) 0.18(7) 0
Si2 Si4+ 4 i 0.0084(9) 0.1633(5) 0.2167(10) 1.22(11) 0.18(7) 0
Si3 Si4+ 4 i 0.0034(8) 0.8171(5) 0.2337(10) 0.98(13) 0.34(7) 0
Si4 Si4+ 4 i 0.0037(8) 0.8189(5) 0.2303(10) 1.05(11) 0.34(7) 0
Si5 Si4+ 4 i 0.6878(8) 0.1099(5) 0.3167(10) 0.65(9) 0.38(7) 0
Si6 Si4+ 4 i 0.6854(8) 0.1097(5) 0.3179(10) 1.01(10) 0.34(7) 0
Si7 Si4+ 4 i 0.6825(8) 0.8799(5) 0.3569(10) 0.77(12) 0.38(7) 0
Si8 Si4+ 4 i 0.6830(8) 0.8798(5) 0.3585(10) 0.95(11) 0.31(7) 0
O1 O2- 4 i 0.0070(21) 0.1267(12) 0.9788(26) 1.72(38) 0.5 0
O2 O2- 4 i -.0035(24) 0.1330(14) 0.978(3) 2.75(40) 0.5 0
O3 O2- 4 i 0.5754(20) 0.9952(12) 0.2806(24) 1.35(36) 0.5 0
O4 O2- 4 i 0.5880(19) 0.9907(11) 0.2744(24) 1.19(37) 0.5 0
O5 O2- 4 i 0.8126(22) 0.1036(13) 0.1884(28) 2.27(40) 0.5 0
O6 O2- 4 i 0.8118(21) 0.1084(12) 0.1886(26) 1.7(4) 0.5 0
O7 O2- 4 i 0.8130(24) 0.8533(14) 0.2384(30) 3.0(4) 0.5 0
O8 O2- 4 i 0.8207(21) 0.8525(12) 0.2544(26) 1.78(38) 0.5 0
O9 O2- 4 i 0.5149(20) 0.7964(12) 0.2742(26) 3.07(40) 0.5 0
O10 O2- 4 i 0.5139(25) 0.7912(14) 0.282(3) 1.67(35) 0.5 0
O11 O2- 4 i 0.5179(25) 0.1868(15) 0.2234(30) 3.14(42) 0.5 0
O12 O2- 4 i 0.5157(20) 0.1922(12) 0.2126(26) 1.68(40) 0.5 0
O13 O2- 4 i 0.1907(19) 0.1088(11) 0.3916(24) 3.02(41) 0.5 0
O14 O2- 4 i 0.2093(24) 0.1074(14) 0.379(3) 2.7(4) 0.5 0
O15 O2- 4 i 0.1902(20) 0.8695(12) 0.4250(26) 1.62(35) 0.5 0
O16 O2- 4 i 0.1894(23) 0.8650(12) 0.4382(26) 2.52(42) 0.5 0
loop_
_atom_site_aniso_label
_atom_site_aniso_type_symbol
_atom_site_aniso_beta_11
_atom_site_aniso_beta_22
_atom_site_aniso_beta_33
_atom_site_aniso_beta_12
_atom_site_aniso_beta_13
_atom_site_aniso_beta_23
Na1 Na1+ 0.011(2) 0.027(3) 0.003(2) -.001(1) 0.0010(2) -.008(1)
Na2 Na1+ 0.002(3) 0.004(2) 0.002(3) 0.001(1) 0.001(1) 0.0000(1)
Ca1 Ca2+ 0.011(2) 0.027(3) 0.003(2) -.001(1) 0.0010(2) -.008(1)
Ca2 Ca2+ 0.002(3) 0.004(2) 0.002(3) 0.001(1) 0.001(1) 0.0000(1)
#End of TTdata_61329-ICSD