
#(C) 2019 by FIZ Karlsruhe - Leibniz Institute for Information Infrastructure.  All rights reserved.
data_61330-ICSD
_database_code_ICSD 61330
_audit_creation_date 1987-03-16
_audit_update_record 2016-08-01
_chemical_name_systematic 'Sodium calcium tecto-alumosilicate *'
_chemical_formula_structural '(Na0.45 Ca0.55) (Al1.55 Si2.45 O8)'
_chemical_formula_sum 'Al1.55 Ca0.55 Na0.45 O8 Si2.45'
_chemical_name_structure_type Feldspar#-(TC,C1-,mod)-Anorthite
_chemical_name_mineral 'Anorthite, sodian'
_exptl_crystal_density_diffrn 2.69
_publ_section_title

;
Modulated structure of an intermediate plagioglase I. Model and computation
II. Numerical results and discussion
;
loop_
_citation_id
_citation_journal_full
_citation_year
_citation_journal_volume
_citation_page_first
_citation_page_last
_citation_journal_id_ASTM
primary

;
Acta Crystallographica, Section B: Structural Crystallography and Crystal
Chemistry
; 1976 32 521 538 ACBCAR
loop_
_publ_author_name
'Toman, K.'
'Frueh, A.J.jr.'
_cell_length_a 8.17(6)
_cell_length_b 12.86(2)
_cell_length_c 7.11(2)
_cell_angle_alpha 93.6(2)
_cell_angle_beta 116.3(1)
_cell_angle_gamma 89.8(1)
_cell_volume 668.13
_cell_formula_units_Z 4
_symmetry_space_group_name_H-M 'C -1'
_symmetry_Int_Tables_number 2
_refine_ls_R_factor_all 0.072
loop_
_symmetry_equiv_pos_site_id
_symmetry_equiv_pos_as_xyz
1 '-x, -y, -z'
2 'x, y, z'
3 '-x+1/2, -y+1/2, -z'
4 'x+1/2, y+1/2, z'
loop_
_atom_type_symbol
_atom_type_oxidation_number
Na1+ 1
Ca2+ 2
Al3+ 3
Si4+ 4
O2- -2
loop_
_atom_site_label
_atom_site_type_symbol
_atom_site_symmetry_multiplicity
_atom_site_Wyckoff_symbol
_atom_site_fract_x
_atom_site_fract_y
_atom_site_fract_z
_atom_site_B_iso_or_equiv
_atom_site_occupancy
_atom_site_attached_hydrogens
Na1 Na1+ 4 i 0.2688(7) -.0239(5) 0.1703(18) 0.12(1) 0.225 0
Na2 Na1+ 4 i 0.2686(7) 0.0290(5) 0.1021(16) 0.12(1) 0.225 0
Ca1 Ca2+ 4 i 0.2688(7) -.0239(5) 0.1703(18) 0.12(1) 0.275 0
Ca2 Ca2+ 4 i 0.2686(7) 0.0290(5) 0.1021(16) 0.12(1) 0.275 0
Al1 Al3+ 4 i 0.0023(7) 0.1676(4) 0.2105(16) 0.58(1) 0.32(7) 0
Al2 Al3+ 4 i 0.0105(7) 0.1626(4) 0.2165(16) 0.58(1) 0.32(7) 0
Al3 Al3+ 4 i 0.0025(7) 0.8171(4) 0.2333(16) 0.58(1) 0.16(7) 0
Al4 Al3+ 4 i 0.0043(7) 0.8190(4) 0.2307(16) 0.58(1) 0.16(7) 0
Al5 Al3+ 4 i 0.6872(7) 0.1099(4) 0.3165(16) 0.58(1) 0.12(7) 0
Al6 Al3+ 4 i 0.6854(7) 0.1095(4) 0.3177(16) 0.58(1) 0.16(7) 0
Al7 Al3+ 4 i 0.6824(7) 0.8797(4) 0.3565(16) 0.58(1) 0.12(7) 0
Al8 Al3+ 4 i 0.6825(7) 0.8802(4) 0.3575(16) 0.58(1) 0.19(7) 0
Si1 Si4+ 4 i 0.0023(7) 0.1676(4) 0.2105(16) 0.58(1) 0.18(7) 0
Si2 Si4+ 4 i 0.0105(7) 0.1626(4) 0.2165(16) 0.58(1) 0.18(7) 0
Si3 Si4+ 4 i 0.0025(7) 0.8171(4) 0.2333(16) 0.58(1) 0.34(7) 0
Si4 Si4+ 4 i 0.0043(7) 0.8190(4) 0.2307(16) 0.58(1) 0.34(7) 0
Si5 Si4+ 4 i 0.6872(7) 0.1099(4) 0.3165(16) 0.58(1) 0.38(7) 0
Si6 Si4+ 4 i 0.6854(7) 0.1095(4) 0.3177(16) 0.58(1) 0.34(7) 0
Si7 Si4+ 4 i 0.6824(7) 0.8797(4) 0.3565(16) 0.58(1) 0.38(7) 0
Si8 Si4+ 4 i 0.6825(7) 0.8802(4) 0.3575(16) 0.58(1) 0.31(7) 0
O1 O2- 4 i 0.0079(17) 0.1253(10) 0.9774(30) 1.36(1) 0.5 0
O2 O2- 4 i -.0022(17) 0.1318(10) 0.9773(10) 1.36(1) 0.5 0
O3 O2- 4 i 0.5783(17) 0.9942(10) 0.2816(30) 1.36(1) 0.5 0
O4 O2- 4 i 0.5852(17) 0.9924(12) 0.2746(30) 1.36(1) 0.5 0
O5 O2- 4 i 0.8150(17) 0.1024(12) 0.1876(30) 1.36(1) 0.5 0
O6 O2- 4 i 0.8088(17) 0.1110(12) 0.1932(30) 1.36(1) 0.5 0
O7 O2- 4 i 0.8113(17) 0.8561(12) 0.2354(30) 1.36(1) 0.5 0
O8 O2- 4 i 0.8258(17) 0.8526(12) 0.2606(30) 1.36(1) 0.5 0
O9 O2- 4 i 0.5145(17) 0.7954(12) 0.2722(30) 1.36(1) 0.5 0
O10 O2- 4 i 0.5131(17) 0.7937(12) 0.2838(30) 1.36(1) 0.5 0
O11 O2- 4 i 0.5189(17) 0.1884(12) 0.2242(30) 1.36(1) 0.5 0
O12 O2- 4 i 0.5134(17) 0.1909(12) 0.2108(30) 1.36(1) 0.5 0
O13 O2- 4 i 0.1907(17) 0.1097(12) 0.3924(30) 1.36(1) 0.5 0
O14 O2- 4 i 0.2076(17) 0.1039(12) 0.378(3) 1.36(1) 0.5 0
O15 O2- 4 i 0.1943(17) 0.8708(12) 0.422(3) 1.36(1) 0.5 0
O16 O2- 4 i 0.1831(17) 0.8642(12) 0.4402(30) 1.36(1) 0.5 0
#End of TTdata_61330-ICSD