
#(C) 2019 by FIZ Karlsruhe - Leibniz Institute for Information Infrastructure.  All rights reserved.
data_61364-ICSD
_database_code_ICSD 61364
_audit_creation_date 1987-03-16
_chemical_name_systematic 'Sodium triniobium pentaoxide fluoride'
_chemical_formula_structural 'Na Nb3 O5 F'
_chemical_formula_sum 'F1 Na1 Nb3 O5'
_exptl_crystal_density_diffrn 5.59
_publ_section_title

;
Na Nb3 O5 F - eine Niob-Niob-Dreifachbindung mit "sideon"-Koordination durch
Nb-Atome
;
loop_
_citation_id
_citation_journal_full
_citation_year
_citation_journal_volume
_citation_page_first
_citation_page_last
_citation_journal_id_ASTM
primary 'Angewandte Chemie' 1986 98 1011 1012 ANCEAD
loop_
_publ_author_name
'Koehler, J.'
'Simon, A.'
_cell_length_a 6.497(1)
_cell_length_b 10.305(1)
_cell_length_c 7.118(1)
_cell_angle_alpha 90.
_cell_angle_beta 90.
_cell_angle_gamma 90.
_cell_volume 476.56
_cell_formula_units_Z 4
_symmetry_space_group_name_H-M 'I m m m'
_symmetry_Int_Tables_number 71
_refine_ls_R_factor_all 0.0193
loop_
_symmetry_equiv_pos_site_id
_symmetry_equiv_pos_as_xyz
1 'x, y, -z'
2 'x, -y, z'
3 '-x, y, z'
4 '-x, -y, -z'
5 '-x, -y, z'
6 '-x, y, -z'
7 'x, -y, -z'
8 'x, y, z'
9 'x+1/2, y+1/2, -z+1/2'
10 'x+1/2, -y+1/2, z+1/2'
11 '-x+1/2, y+1/2, z+1/2'
12 '-x+1/2, -y+1/2, -z+1/2'
13 '-x+1/2, -y+1/2, z+1/2'
14 '-x+1/2, y+1/2, -z+1/2'
15 'x+1/2, -y+1/2, -z+1/2'
16 'x+1/2, y+1/2, z+1/2'
loop_
_atom_type_symbol
_atom_type_oxidation_number
Nb2+ 2
Nb4+ 4
Na1+ 1
O2- -2
F1- -1
loop_
_atom_site_label
_atom_site_type_symbol
_atom_site_symmetry_multiplicity
_atom_site_Wyckoff_symbol
_atom_site_fract_x
_atom_site_fract_y
_atom_site_fract_z
_atom_site_B_iso_or_equiv
_atom_site_occupancy
_atom_site_attached_hydrogens
Nb1 Nb2+ 4 f 0.29889(9) 0.5 0 . 1. 0
Nb2 Nb4+ 8 l 0.5 0.27864(4) 0.22968(6) . 1. 0
Na1 Na1+ 4 e 0.23386(45) 0.5 0.5 . 1. 0
O1 O2- 4 g 0.5 0.66634(48) 0.5 . 0.8333 0
O2 O2- 4 h 0 0.67286(47) 0.5 . 0.8333 0
O3 O2- 16 o 0.22539(35) 0.36525(22) -.19420(36) . 0.8333 0
F1 F1- 4 g 0.5 0.66634(48) 0.5 . 0.1667 0
F2 F1- 4 h 0 0.67286(47) 0.5 . 0.1667 0
F3 F1- 16 o 0.22539(35) 0.36525(22) -.19420(36) . 0.1667 0
loop_
_atom_site_aniso_label
_atom_site_aniso_type_symbol
_atom_site_aniso_U_11
_atom_site_aniso_U_22
_atom_site_aniso_U_33
_atom_site_aniso_U_12
_atom_site_aniso_U_13
_atom_site_aniso_U_23
Nb1 Nb2+ 0.0084(3) 0.0083(3) 0.0078(3) 0 0 0
Nb2 Nb4+ 0.0092(2) 0.0092(3) 0.0092(2) 0 0 0.0006(2)
Na1 Na1+ 0.0126(13) 0.0127(13) 0.0202(16) 0 0 0
O1 O2- 0.0118(22) 0.0131(24) 0.0101(23) 0 0 0
O2 O2- 0.0107(21) 0.0112(23) 0.0107(23) 0 0 0
O3 O2- 0.0108(11) 0.0113(11) 0.0103(11) 0.0000(9) -.0018(10) -.0004(9)
F1 F1- 0.0118(22) 0.0131(24) 0.0101(23) 0 0 0
F2 F1- 0.0107(21) 0.0112(23) 0.0107(23) 0 0 0
F3 F1- 0.0108(11) 0.0113(11) 0.0103(11) 0.0000(9) -.0018(10) -.0004(9)
#End of TTdata_61364-ICSD