
#(C) 2019 by FIZ Karlsruhe - Leibniz Institute for Information Infrastructure.  All rights reserved.
data_61403-ICSD
_database_code_ICSD 61403
_audit_creation_date 1988-02-22
_chemical_name_systematic 'Potassium sodium manganate(II)'
_chemical_formula_structural 'K Na Mn O2'
_chemical_formula_sum 'K1 Mn1 Na1 O2'
_exptl_crystal_density_diffrn 3.15
_publ_section_title 'Ein neues Oxomanganat(II): K Na Mn O2'
loop_
_citation_id
_citation_journal_full
_citation_year
_citation_journal_volume
_citation_page_first
_citation_page_last
_citation_journal_id_ASTM
primary 'Journal of the Less-Common Metals' 1985 108 279 288 JCOMAH
loop_
_publ_author_name
'Seipp, E.'
'Hoppe, R.'
_cell_length_a 9.696(2)
_cell_length_b 9.343(1)
_cell_length_c 6.936(1)
_cell_angle_alpha 90.
_cell_angle_beta 90.
_cell_angle_gamma 90.
_cell_volume 628.33
_cell_formula_units_Z 8
_symmetry_space_group_name_H-M 'C c c m'
_symmetry_Int_Tables_number 66
_refine_ls_R_factor_all 0.0713
loop_
_symmetry_equiv_pos_site_id
_symmetry_equiv_pos_as_xyz
1 '-x, y, z+1/2'
2 'x, -y, z+1/2'
3 'x, y, -z'
4 '-x, -y, -z'
5 'x, -y, -z+1/2'
6 '-x, y, -z+1/2'
7 '-x, -y, z'
8 'x, y, z'
9 '-x+1/2, y+1/2, z+1/2'
10 'x+1/2, -y+1/2, z+1/2'
11 'x+1/2, y+1/2, -z'
12 '-x+1/2, -y+1/2, -z'
13 'x+1/2, -y+1/2, -z+1/2'
14 '-x+1/2, y+1/2, -z+1/2'
15 '-x+1/2, -y+1/2, z'
16 'x+1/2, y+1/2, z'
loop_
_atom_type_symbol
_atom_type_oxidation_number
K1+ 1
Na1+ 1
Mn2+ 2
O2- -2
loop_
_atom_site_label
_atom_site_type_symbol
_atom_site_symmetry_multiplicity
_atom_site_Wyckoff_symbol
_atom_site_fract_x
_atom_site_fract_y
_atom_site_fract_z
_atom_site_B_iso_or_equiv
_atom_site_occupancy
_atom_site_attached_hydrogens
K1 K1+ 4 a 0 0 0.25 . 1. 0
K2 K1+ 4 f 0.25 0.25 0.5 . 1. 0
Na1 Na1+ 8 h 0 0.6490(2) 0.75 . 1. 0
Mn1 Mn2+ 8 l 0.7320(1) 0.1082(1) 0.5 . 1. 0
O1 O2- 8 l 0.4133(3) 0.2791(3) 0 . 1. 0
O2 O2- 8 g 0.8018(3) 0.5 0.75 . 1. 0
loop_
_atom_site_aniso_label
_atom_site_aniso_type_symbol
_atom_site_aniso_U_11
_atom_site_aniso_U_22
_atom_site_aniso_U_33
_atom_site_aniso_U_12
_atom_site_aniso_U_13
_atom_site_aniso_U_23
K1 K1+ 0.0116(6) 0.0148(6) 0.0147(7) 0 0 0
K2 K1+ 0.0434(12) 0.0176(8) 0.0366(11) 0.0073(8) 0 0
Na1 Na1+ 0.0141(8) 0.0159(9) 0.0168(10) 0 0.0064(8) 0
Mn1 Mn2+ 0.0073(3) 0.0074(3) 0.0079(3) 0.0002(3) 0 0
O1 O2- 0.0067(14) 0.0096(15) 0.0139(16) 0.0002(11) 0 0
O2 O2- 0.0105(13) 0.0166(14) 0.0137(15) 0 0 -.0043(13)
#End of TTdata_61403-ICSD