
#(C) 2019 by FIZ Karlsruhe - Leibniz Institute for Information Infrastructure.  All rights reserved.
data_61514-ICSD
_database_code_ICSD 61514
_audit_creation_date 1986-12-03
_audit_update_record 2016-02-01
_chemical_name_systematic 'Sodium copper(I) sulfide (1/5/3)'
_chemical_formula_structural 'Na Cu5 S3'
_chemical_formula_sum 'Cu5 Na1 S3'
_exptl_crystal_density_diffrn 4.77
_publ_section_title 'Crystal structure of Na Cu5 S3'
loop_
_citation_id
_citation_journal_full
_citation_year
_citation_journal_volume
_citation_page_first
_citation_page_last
_citation_journal_id_ASTM
primary 'Monatshefte fuer Chemie' 1985 116 921 926 MOCMB7
loop_
_publ_author_name
'Effenberger, H.'
'Pertlik, F.'
_cell_length_a 6.978(5)
_cell_length_b 6.978(5)
_cell_length_c 7.209(6)
_cell_angle_alpha 90.
_cell_angle_beta 90.
_cell_angle_gamma 120.
_cell_volume 304.
_cell_formula_units_Z 2
_symmetry_space_group_name_H-M 'P 63 2 2'
_symmetry_Int_Tables_number 182
_refine_ls_R_factor_all 0.023
loop_
_symmetry_equiv_pos_site_id
_symmetry_equiv_pos_as_xyz
1 'x, x-y, -z+1/2'
2 '-x+y, y, -z+1/2'
3 '-y, -x, -z+1/2'
4 'x-y, x, z+1/2'
5 'y, -x+y, z+1/2'
6 '-x, -y, z+1/2'
7 '-x, -x+y, -z'
8 'x-y, -y, -z'
9 'y, x, -z'
10 '-x+y, -x, z'
11 '-y, x-y, z'
12 'x, y, z'
loop_
_atom_type_symbol
_atom_type_oxidation_number
Na1+ 1
Cu1+ 1
S2- -2
loop_
_atom_site_label
_atom_site_type_symbol
_atom_site_symmetry_multiplicity
_atom_site_Wyckoff_symbol
_atom_site_fract_x
_atom_site_fract_y
_atom_site_fract_z
_atom_site_B_iso_or_equiv
_atom_site_occupancy
_atom_site_attached_hydrogens
Na1 Na1+ 2 b 0 0 0.25 . 1. 0
Cu1 Cu1+ 6 h 0.48631(8) -0.48631(8) 0.25 . 1. 0
Cu2 Cu1+ 4 f 0.6667 0.3333 0.02363(16) . 1. 0
S1 S2- 6 g 0.67576(27) 0.67576(27) 0.5 . 1. 0
loop_
_atom_site_aniso_label
_atom_site_aniso_type_symbol
_atom_site_aniso_U_11
_atom_site_aniso_U_22
_atom_site_aniso_U_33
_atom_site_aniso_U_12
_atom_site_aniso_U_13
_atom_site_aniso_U_23
Na1 Na1+ 0.027(2) 0.027(2) 0.026(4) 0.0135(2) 0 0
Cu1 Cu1+ 0.0375(5) 0.0375(5) 0.0234(7) 0.0187(5) -.0096(5) -.0096(5)
Cu2 Cu1+ 0.0240(5) 0.0240(5) 0.0308(6) 0.0120(5) 0 0
S1 S2- 0.0155(7) 0.0155(7) 0.0176(9) 0.0061(8) -.0003(4) -.0003(4)
#End of TTdata_61514-ICSD