
#(C) 2019 by FIZ Karlsruhe - Leibniz Institute for Information Infrastructure.  All rights reserved.
data_62148-ICSD
_database_code_ICSD 62148
_audit_creation_date 1988-02-22
_audit_update_record 2005-10-01
_chemical_name_systematic 'Cesium trisodium tetraphosphate(V) trihydrate'
_chemical_formula_structural 'Cs Na3 (P4 O12) (H2 O)3'
_chemical_formula_sum 'H6 Cs1 Na3 O15 P4'
_exptl_crystal_density_diffrn 2.6
_publ_section_title
'Contribution to the Crystal Chemistry of Tetrametaphosphates(II)'
loop_
_citation_id
_citation_journal_full
_citation_year
_citation_journal_volume
_citation_page_first
_citation_page_last
_citation_journal_id_ASTM
primary 'Journal of Solid State Chemistry' 1985 60 13 19 JSSCBI
loop_
_publ_author_name
'Averbuch-Pouchot, M.T.'
'Durif, A.'
_cell_length_a 11.39(1)
_cell_length_b 10.92(1)
_cell_length_c 11.81(1)
_cell_angle_alpha 90.
_cell_angle_beta 95.24(5)
_cell_angle_gamma 90.
_cell_volume 1462.77
_cell_formula_units_Z 4
_symmetry_space_group_name_H-M 'P 1 21/c 1'
_symmetry_Int_Tables_number 14
_refine_ls_R_factor_all 0.018
loop_
_symmetry_equiv_pos_site_id
_symmetry_equiv_pos_as_xyz
1 'x, -y+1/2, z+1/2'
2 '-x, -y, -z'
3 '-x, y+1/2, -z+1/2'
4 'x, y, z'
loop_
_atom_type_symbol
_atom_type_oxidation_number
Cs1+ 1
P5+ 5
Na1+ 1
O2- -2
H1+ 1
loop_
_atom_site_label
_atom_site_type_symbol
_atom_site_symmetry_multiplicity
_atom_site_Wyckoff_symbol
_atom_site_fract_x
_atom_site_fract_y
_atom_site_fract_z
_atom_site_B_iso_or_equiv
_atom_site_occupancy
_atom_site_attached_hydrogens
Cs1 Cs1+ 4 e 0.24599(1) 0.22621(2) 0.77168(2) 2.716(2) 1. 0
P1 P5+ 4 e 0.19096(4) 0.98876(5) 0.03137(5) 1.12(1) 1. 0
P2 P5+ 4 e 0.01130(4) 0.18602(5) -.00139(5) 1.10(1) 1. 0
P3 P5+ 4 e 0.32137(4) 0.50783(5) 0.00100(5) 1.19(1) 1. 0
P4 P5+ 4 e 0.49428(5) 0.19685(5) 0.53014(5) 1.20(1) 1. 0
Na1 Na1+ 2 b 0.5 0 0 1.73(1) 1. 0
Na2 Na1+ 2 c 0 0.5 0 1.98(1) 1. 0
Na3 Na1+ 4 e 0.88677(8) 0.37445(9) 0.21109(8) 1.81(2) 1. 0
Na4 Na1+ 4 e 0.39201(8) 0.65797(9) 0.71500(8) 1.75(2) 1. 0
O1 O2- 4 e 0.2812(1) 0.0021(2) 0.9496(1) 1.88(4) 1. 0
O2 O2- 4 e 0.2241(1) 0.5598(2) 0.6463(1) 1.98(4) 1. 0
O3 O2- 4 e -.0018(1) 0.7030(1) 0.9305(1) 1.76(4) 1. 0
O4 O2- 4 e 0.0087(1) 0.1976(2) 0.8736(1) 1.92(4) 1. 0
O5 O2- 4 e 0.0850(1) 0.5887(1) 0.4666(1) 1.32(3) 1. 0
O6 O2- 4 e 0.8695(1) 0.6197(2) 0.4525(2) 1.91(4) 1. 0
O7 O2- 4 e 0.2050(1) 0.0014(2) 0.4358(2) 2.09(4) 1. 0
O8 O2- 4 e 0.6701(2) 0.4745(2) 0.8750(1) 2.22(4) 1. 0
O9 O2- 4 e 0.5401(1) 0.7351(2) 0.8567(1) 1.73(4) 1. 0
O10 O2- 4 e 0.5177(2) 0.2906(1) 0.4451(1) 2.02(4) 1. 0
O11 O2- 4 e 0.6066(2) 0.3890(2) 0.0596(2) 2.39(4) 1. 0
O12 O2- 4 e 0.3964(2) 0.3908(2) 0.9690(1) 2.12(4) 1. 0
O13 O2- 4 e 0.4900(2) 0.0256(2) 0.2046(2) 2.14(4) 1. 0
O14 O2- 4 e 0.9786(2) 0.0551(2) 0.2971(2) 2.79(5) 1. 0
O15 O2- 4 e 0.2528(2) 0.6928(2) 0.2805(2) 2.16(4) 1. 0
H1 H1+ 4 e 0.478(3) 0.401(3) 0.689(3) 3.1(7) 1. 0
H2 H1+ 4 e 0.457(3) 0.530(3) 0.243(3) 3.9(8) 1. 0
H3 H1+ 4 e 0.063(3) 0.563(4) 0.256(3) 4.3(8) 1. 0
H4 H1+ 4 e 0.010(3) 0.629(4) 0.187(3) 5.0(9) 1. 0
H5 H1+ 4 e 0.251(3) 0.640(3) 0.231(3) 3.4(7) 1. 0
H6 H1+ 4 e 0.261(3) 0.647(4) 0.334(3) 4.1(8) 1. 0
#End of TTdata_62148-ICSD