
#(C) 2019 by FIZ Karlsruhe - Leibniz Institute for Information Infrastructure.  All rights reserved.
data_62383-ICSD
_database_code_ICSD 62383
_audit_creation_date 1988-12-19
_audit_update_record 1999-11-30
_chemical_name_systematic 'Sodium zirconium silicate phosphate *'
_chemical_formula_structural 'Na3.05 Zr2 Si2.05 P.95 O12'
_chemical_formula_sum 'Na3.05 O12 P0.95 Si2.05 Zr2'
_chemical_name_structure_type 'Nasicon high'
_chemical_name_mineral 'Nasicon high'
_exptl_crystal_density_diffrn 3.24
_cell_measurement_temperature 443.
_publ_section_title
'Relation structure-fast ion conduction in the NASICON solid solution'
loop_
_citation_id
_citation_journal_full
_citation_year
_citation_journal_volume
_citation_page_first
_citation_page_last
_citation_journal_id_ASTM
primary 'Journal of Solid State Chemistry' 1988 73 160 171 JSSCBI
loop_
_publ_author_name
'Boilot, J.P.'
'Collin, G.'
'Colomban, P.'
_cell_length_a 9.068(2)
_cell_length_b 9.068(2)
_cell_length_c 22.980(4)
_cell_angle_alpha 90.
_cell_angle_beta 90.
_cell_angle_gamma 120.
_cell_volume 1636.45
_cell_formula_units_Z 6
_symmetry_space_group_name_H-M 'R -3 c H'
_symmetry_Int_Tables_number 167
_refine_ls_R_factor_all 0.0347
loop_
_symmetry_equiv_pos_site_id
_symmetry_equiv_pos_as_xyz
1 'x-y, -y, -z+1/2'
2 '-x, -x+y, -z+1/2'
3 'y, x, -z+1/2'
4 'x-y, x, -z'
5 'y, -x+y, -z'
6 '-x, -y, -z'
7 '-x+y, y, z+1/2'
8 'x, x-y, z+1/2'
9 '-y, -x, z+1/2'
10 '-x+y, -x, z'
11 '-y, x-y, z'
12 'x, y, z'
13 'x-y+2/3, -y+1/3, -z+5/6'
14 '-x+2/3, -x+y+1/3, -z+5/6'
15 'y+2/3, x+1/3, -z+5/6'
16 'x-y+2/3, x+1/3, -z+1/3'
17 'y+2/3, -x+y+1/3, -z+1/3'
18 '-x+2/3, -y+1/3, -z+1/3'
19 '-x+y+2/3, y+1/3, z+5/6'
20 'x+2/3, x-y+1/3, z+5/6'
21 '-y+2/3, -x+1/3, z+5/6'
22 '-x+y+2/3, -x+1/3, z+1/3'
23 '-y+2/3, x-y+1/3, z+1/3'
24 'x+2/3, y+1/3, z+1/3'
25 'x-y+1/3, -y+2/3, -z+1/6'
26 '-x+1/3, -x+y+2/3, -z+1/6'
27 'y+1/3, x+2/3, -z+1/6'
28 'x-y+1/3, x+2/3, -z+2/3'
29 'y+1/3, -x+y+2/3, -z+2/3'
30 '-x+1/3, -y+2/3, -z+2/3'
31 '-x+y+1/3, y+2/3, z+1/6'
32 'x+1/3, x-y+2/3, z+1/6'
33 '-y+1/3, -x+2/3, z+1/6'
34 '-x+y+1/3, -x+2/3, z+2/3'
35 '-y+1/3, x-y+2/3, z+2/3'
36 'x+1/3, y+2/3, z+2/3'
loop_
_atom_type_symbol
_atom_type_oxidation_number
Zr4+ 4
Si4+ 4
P5+ 5
O2- -2
Na1+ 1
loop_
_atom_site_label
_atom_site_type_symbol
_atom_site_symmetry_multiplicity
_atom_site_Wyckoff_symbol
_atom_site_fract_x
_atom_site_fract_y
_atom_site_fract_z
_atom_site_B_iso_or_equiv
_atom_site_occupancy
_atom_site_attached_hydrogens
Zr1 Zr4+ 12 c 0 0 0.1478(1) . 1. 0
Si1 Si4+ 18 e 0.2903(1) 0 0.25 . 0.68 0
P1 P5+ 18 e 0.2903(1) 0 0.25 . 0.32 0
O1 O2- 36 f 0.1724(4) -.0344(5) 0.1946(1) . 1. 0
O2 O2- 36 f 0.1932(3) 0.1696(3) 0.0914(1) . 1. 0
Na1 Na1+ 6 b 0 0 0 . 0.36(2) 0
Na2 Na1+ 18 e 0.6347(7) 0 0.25 . 0.67(1) 0
Na3 Na1+ 36 f 0.9853(51) 0.8066(89) 0.9798(20) . 0.11 0
loop_
_atom_site_aniso_label
_atom_site_aniso_type_symbol
_atom_site_aniso_U_11
_atom_site_aniso_U_22
_atom_site_aniso_U_33
_atom_site_aniso_U_12
_atom_site_aniso_U_13
_atom_site_aniso_U_23
Zr1 Zr4+ 0.0157(2) 0.0157(2) 0.0138(2) 0.0079 0 0
Si1 Si4+ 0.123(4) 0.0136(5) 0.0150(4) 0.0068 0.0019 0.0038(4)
P1 P5+ 0.123(4) 0.0136(5) 0.0150(4) 0.0068 0.0019 0.0038(4)
O1 O2- 0.0333(16) 0.0456(20) 0.0362(15) 0.0244(15) -.0169(14) 0.0004(14)
O2 O2- 0.0197(11) 0.0244(13) 0.0260(13) 0.0021(10) 0.0077(11) 0.0044(11)
Na1 Na1+ 0.171(18) 0.171(18) 0.033(10) 0.0854 0 0
Na2 Na1+ 0.0377(26) 0.0425(39) 0.217(14) 0.0213 0.0357 0.0713(58)
Na3 Na1+ 0.074(27) 0.30(9) 0.181(60) 0.080(59) 0.053(40) 0.220(67)
#End of TTdata_62383-ICSD