
#(C) 2019 by FIZ Karlsruhe - Leibniz Institute for Information Infrastructure.  All rights reserved.
data_62516-ICSD
_database_code_ICSD 62516
_audit_creation_date 1988-02-22
_audit_update_record 2012-08-01
_chemical_name_systematic 'Disodium sulfate(VI) - I'
_chemical_formula_structural 'Na2 (S O4)'
_chemical_formula_sum 'Na2 O4 S1'
_chemical_name_mineral Metathenardite
_exptl_crystal_density_diffrn 2.5
_cell_measurement_temperature 693.
_publ_section_title 'Structure of Na2 S O4 at 693 K'
loop_
_citation_id
_citation_journal_full
_citation_year
_citation_journal_volume
_citation_page_first
_citation_page_last
_citation_journal_id_ASTM
primary 'Acta Crystallographica, Section B: Structural Science' 1987 43 143 146
ASBSDK
loop_
_publ_author_name
'Naruse, H.'
'Tanaka, K.'
'Morikawa, H.'
'Marumo, F.'
'Mehrotra, B.N.'
_cell_length_a 5.444(2)
_cell_length_b 5.444(2)
_cell_length_c 7.347(6)
_cell_angle_alpha 90.
_cell_angle_beta 90.
_cell_angle_gamma 120.
_cell_volume 188.57
_cell_formula_units_Z 2
_symmetry_space_group_name_H-M 'P 63/m m c'
_symmetry_Int_Tables_number 194
_refine_ls_R_factor_all 0.049
loop_
_symmetry_equiv_pos_site_id
_symmetry_equiv_pos_as_xyz
1 'x, x-y, -z+1/2'
2 '-x+y, y, -z+1/2'
3 '-y, -x, -z+1/2'
4 '-x+y, -x, -z+1/2'
5 '-y, x-y, -z+1/2'
6 'x, y, -z+1/2'
7 '-x, -x+y, z+1/2'
8 'x-y, -y, z+1/2'
9 'y, x, z+1/2'
10 'x-y, x, z+1/2'
11 'y, -x+y, z+1/2'
12 '-x, -y, z+1/2'
13 '-x, -x+y, -z'
14 'x-y, -y, -z'
15 'y, x, -z'
16 'x-y, x, -z'
17 'y, -x+y, -z'
18 '-x, -y, -z'
19 'x, x-y, z'
20 '-x+y, y, z'
21 '-y, -x, z'
22 '-x+y, -x, z'
23 '-y, x-y, z'
24 'x, y, z'
loop_
_atom_type_symbol
_atom_type_oxidation_number
Na1+ 1
S6+ 6
O2- -2
loop_
_atom_site_label
_atom_site_type_symbol
_atom_site_symmetry_multiplicity
_atom_site_Wyckoff_symbol
_atom_site_fract_x
_atom_site_fract_y
_atom_site_fract_z
_atom_site_B_iso_or_equiv
_atom_site_occupancy
_atom_site_attached_hydrogens
Na1 Na1+ 2 a 0 0 0 . 1. 0
Na2 Na1+ 2 d 0.3333 0.6667 0.75 . 1. 0
S1 S6+ 2 c 0.3333 0.6667 0.25 . 1. 0
O1 O2- 12 k 0.271(5) 0.542(10) 0.450(3) . 0.333 0
O2 O2- 12 k 0.193(1) 0.386(2) 0.226(6) . 0.333 0
loop_
_atom_site_aniso_label
_atom_site_aniso_type_symbol
_atom_site_aniso_U_11
_atom_site_aniso_U_22
_atom_site_aniso_U_33
_atom_site_aniso_U_12
_atom_site_aniso_U_13
_atom_site_aniso_U_23
Na1 Na1+ 0.083(3) 0.083(3) 0.090(5) 0.042(2) 0 0
Na2 Na1+ 0.082(4) 0.082(4) 0.166(8) 0.041(2) 0 0
S1 S6+ 0.048(2) 0.048(2) 0.069(3) 0.024(1) 0 0
O1 O2- 0.25(13) 0.14(11) 0.08(2) 0.070(55) 0.03(3) 0.06(6)
O2 O2- 0.12(1) 0.08(2) 0.31(2) 0.04(1) -0.03(2) -0.06(4)
#End of TTdata_62516-ICSD