
#(C) 2019 by FIZ Karlsruhe - Leibniz Institute for Information Infrastructure.  All rights reserved.
data_6255-ICSD
_database_code_ICSD 6255
_audit_creation_date 1980-01-01
_audit_update_record 1998-06-26
_chemical_name_systematic 'Strontium sodium alumosilicate *'
_chemical_formula_structural 'Sr0.84 Na0.03 Al1.69 Si2.29 O8'
_chemical_formula_sum 'Al1.69 Na0.03 O8 Si2.29 Sr0.84'
_chemical_name_structure_type Feldspar#-(MO,C12/m1)-KAlSi3O8
_chemical_name_mineral 'Feldspar, strontian'
_exptl_crystal_density_diffrn 2.98
_publ_section_title

;
The refinement of the crystal structure of a synthetic nonstoichiometric Sr
feldspar
;
loop_
_citation_id
_citation_journal_full
_citation_year
_citation_journal_volume
_citation_page_first
_citation_page_last
_citation_journal_id_ASTM
primary 'American Mineralogist' 1974 59 1319 1326 AMMIAY
loop_
_publ_author_name
'Grundy, H.D.'
'Ito, J.'
_cell_length_a 8.3282(8)
_cell_length_b 12.9801(12)
_cell_length_c 7.1358(6)
_cell_angle_alpha 90.
_cell_angle_beta 115.599(3)
_cell_angle_gamma 90.
_cell_volume 695.67
_cell_formula_units_Z 4
_symmetry_space_group_name_H-M 'C 1 2/m 1'
_symmetry_Int_Tables_number 12
_refine_ls_R_factor_all 0.04
loop_
_symmetry_equiv_pos_site_id
_symmetry_equiv_pos_as_xyz
1 '-x, y, -z'
2 '-x, -y, -z'
3 'x, -y, z'
4 'x, y, z'
5 '-x+1/2, y+1/2, -z'
6 '-x+1/2, -y+1/2, -z'
7 'x+1/2, -y+1/2, z'
8 'x+1/2, y+1/2, z'
loop_
_atom_type_symbol
_atom_type_oxidation_number
O2- -2
Si4+ 4
Al3+ 3
Si4+ 4
Al3+ 3
Sr2+ 2
Na1+ 1
loop_
_atom_site_label
_atom_site_type_symbol
_atom_site_symmetry_multiplicity
_atom_site_Wyckoff_symbol
_atom_site_fract_x
_atom_site_fract_y
_atom_site_fract_z
_atom_site_B_iso_or_equiv
_atom_site_occupancy
_atom_site_attached_hydrogens
O1 O2- 4 g 0 0.1329(4) 0 . 1. 0
O2 O2- 4 i 0.5951(6) 0 0.2843(8) . 1. 0
O3 O2- 8 j 0.8201(5) 0.1298(3) 0.2212(6) . 1. 0
O4 O2- 8 j 0.0193(5) 0.3052(3) 0.2518(6) . 1. 0
O5 O2- 8 j 0.1907(5) 0.1227(3) 0.4025(6) . 1. 0
Si1 Si4+ 8 j 0.0054(2) 0.1772(1) 0.2237(2) . 0.52(8) 0
Al1 Al3+ 8 j 0.0054(2) 0.1772(1) 0.2237(2) . 0.48(8) 0
Si2 Si4+ 8 j 0.6908(2) 0.1166(1) 0.3414(2) . 0.61(8) 0
Al2 Al3+ 8 j 0.6908(2) 0.1166(1) 0.3414(2) . 0.39(8) 0
Sr1 Sr2+ 4 i 0.2696(1) 0 0.1306(2) . 0.84 0
Na1 Na1+ 4 i 0.2696(1) 0 0.1306(2) . 0.03 0
loop_
_atom_site_aniso_label
_atom_site_aniso_type_symbol
_atom_site_aniso_beta_11
_atom_site_aniso_beta_22
_atom_site_aniso_beta_33
_atom_site_aniso_beta_12
_atom_site_aniso_beta_13
_atom_site_aniso_beta_23
O1 O2- 0.00739(91) 0.00159(32) 0.0056(13) 0 0.00415(92) 0
O2 O2- 0.00322(85) 0.00075(29) 0.0097(15) 0 0.00017(93) 0
O3 O2- 0.00732(65) 0.00216(26) 0.0111(11) -.00005(33) 0.00526(72) 0.00112(43)
O4 O2- 0.00665(68) 0.00170(23) 0.0100(11) -.00039(33) 0.00350(72) 0.00005(40)
O5 O2- 0.00661(66) 0.00296(28) 0.00660(94) 0.00007(35) 0.00181(68) 0.00069(44)
Si1 Si4+ 0.00395(23) 0.00122(8) 0.00339(35) -.00069(13) 0.00196(24) -.00015(15)
Al1 Al3+ 0.00395(23) 0.00122(8) 0.00339(35) -.00069(13) 0.00196(24) -.00015(15)
Si2 Si4+ 0.00387(23) 0.00093(9) 0.00381(33) -.00001(11) 0.00132(23) -.00018(14)
Al2 Al3+ 0.00387(23) 0.00093(9) 0.00381(33) -.00001(11) 0.00132(23) -.00018(14)
Sr1 Sr2+ 0.00610(17) 0.00403(9) 0.01046(27) 0 0.00186(17) 0
Na1 Na1+ 0.00610(17) 0.00403(9) 0.01046(27) 0 0.00186(17) 0
#End of TTdata_6255-ICSD