
#(C) 2019 by FIZ Karlsruhe - Leibniz Institute for Information Infrastructure.  All rights reserved.
data_62568-ICSD
_database_code_ICSD 62568
_audit_creation_date 1988-02-22
_chemical_name_systematic 'Silver sodium dinitrite - ferroelectric'
_chemical_formula_structural 'Ag Na (N O2)2'
_chemical_formula_sum 'Ag1 N2 Na1 O4'
_exptl_crystal_density_diffrn 3.19
_cell_measurement_temperature 308.
_publ_section_title
'Temperature dependence of disorder of nitrite ions in Ag Na (N O2)2.'
loop_
_citation_id
_citation_journal_full
_citation_year
_citation_journal_volume
_citation_page_first
_citation_page_last
_citation_journal_id_ASTM
primary 'Acta Crystallographica, Section B: Structural Science' 1987 43 160 164
ASBSDK
loop_
_publ_author_name
'Ishihara, M.'
'Ohba, S.'
'Saito, Y.'
_cell_length_a 8.038(2)
_cell_length_b 10.742(3)
_cell_length_c 10.763(2)
_cell_angle_alpha 90.
_cell_angle_beta 90.
_cell_angle_gamma 90.
_cell_volume 929.32
_cell_formula_units_Z 8
_symmetry_space_group_name_H-M 'F d 2 d'
_symmetry_Int_Tables_number 43
_refine_ls_R_factor_all 0.022
loop_
_symmetry_equiv_pos_site_id
_symmetry_equiv_pos_as_xyz
1 'x+1/4, y+1/4, -z+1/4'
2 '-x+1/4, y+1/4, z+1/4'
3 '-x, y, -z'
4 'x, y, z'
5 'x+1/4, y+3/4, -z+3/4'
6 '-x+1/4, y+3/4, z+3/4'
7 '-x, y+1/2, -z+1/2'
8 'x, y+1/2, z+1/2'
9 'x+3/4, y+1/4, -z+3/4'
10 '-x+3/4, y+1/4, z+3/4'
11 '-x+1/2, y, -z+1/2'
12 'x+1/2, y, z+1/2'
13 'x+3/4, y+3/4, -z+1/4'
14 '-x+3/4, y+3/4, z+1/4'
15 '-x+1/2, y+1/2, -z'
16 'x+1/2, y+1/2, z'
loop_
_atom_type_symbol
_atom_type_oxidation_number
Ag1+ 1
Na1+ 1
N3+ 3
O2- -2
loop_
_atom_site_label
_atom_site_type_symbol
_atom_site_symmetry_multiplicity
_atom_site_Wyckoff_symbol
_atom_site_fract_x
_atom_site_fract_y
_atom_site_fract_z
_atom_site_B_iso_or_equiv
_atom_site_occupancy
_atom_site_attached_hydrogens
Ag1 Ag1+ 8 a 0 0 0 3.8(1) 1. 0
Na1 Na1+ 8 a 0 0.5016(12) 0 3.0(1) 1. 0
N1 N3+ 8 a 0 0.1983(10) 0 2.4(2) 0.496(21) 0
N2 N3+ 8 a 0 0.2609(21) 0 2.4(2) 0.504(21) 0
N3 N3+ 8 a 0 0.7263(12) 0 2.8(2) 0.952(26) 0
N4 N3+ 8 a 0 0.787(14) 0 2.8(2) 0.048(26) 0
O1 O2- 16 b -.0502(10) 0.2599(14) 0.0943(8) 3.9(2) 0.496(21) 0
O2 O2- 16 b -.0502(10) 0.1994(18) 0.0943(8) 3.9(2) 0.504(21) 0
O3 O2- 16 b 0.0454(9) 0.7902(10) 0.0872(6) 3.6(2) 0.952(26) 0
O4 O2- 16 b 0.0454(9) 0.724(14) 0.0872(6) 3.6(2) 0.048(26) 0
#End of TTdata_62568-ICSD