
#(C) 2019 by FIZ Karlsruhe - Leibniz Institute for Information Infrastructure.  All rights reserved.
data_62579-ICSD
_database_code_ICSD 62579
_audit_creation_date 1988-02-22
_audit_update_record 2005-10-01
_chemical_name_systematic 'Oentasodium tetrathioferrate(III)'
_chemical_formula_structural 'Na5 (Fe S4)'
_chemical_formula_sum 'Fe1 Na5 S4'
_chemical_name_structure_type Na5FeO4
_exptl_crystal_density_diffrn 2.18
_publ_section_title
'Na5 Fe S4 - das erste Thioferrat(III) mit diskreten tetraedrischen Anionen.'
loop_
_citation_id
_citation_journal_full
_citation_year
_citation_journal_volume
_citation_page_first
_citation_page_last
_citation_journal_id_ASTM
primary 'Zeitschrift fuer Anorganische und Allgemeine Chemie (1950) (DE)' 1986
532 23 30 ZAACAB
loop_
_publ_author_name
'Klepp, K.O.'
'Bronger, W.'
_cell_length_a 11.947(5)
_cell_length_b 7.091(3)
_cell_length_c 21.54(1)
_cell_angle_alpha 90.
_cell_angle_beta 90.
_cell_angle_gamma 90.
_cell_volume 1824.79
_cell_formula_units_Z 8
_symmetry_space_group_name_H-M 'P b c a'
_symmetry_Int_Tables_number 61
_refine_ls_R_factor_all 0.03
loop_
_symmetry_equiv_pos_site_id
_symmetry_equiv_pos_as_xyz
1 'x+1/2, y, -z+1/2'
2 'x, -y+1/2, z+1/2'
3 '-x+1/2, y+1/2, z'
4 '-x, -y, -z'
5 '-x+1/2, -y, z+1/2'
6 '-x, y+1/2, -z+1/2'
7 'x+1/2, -y+1/2, -z'
8 'x, y, z'
loop_
_atom_type_symbol
_atom_type_oxidation_number
Na1+ 1
Fe3+ 3
S2- -2
loop_
_atom_site_label
_atom_site_type_symbol
_atom_site_symmetry_multiplicity
_atom_site_Wyckoff_symbol
_atom_site_fract_x
_atom_site_fract_y
_atom_site_fract_z
_atom_site_B_iso_or_equiv
_atom_site_occupancy
_atom_site_attached_hydrogens
Na1 Na1+ 8 c 0.1615(1) 0.1057(2) 0.82994(7) . 1. 0
Na2 Na1+ 8 c 0.0589(2) 0.0611(2) 0.43284(8) . 1. 0
Na3 Na1+ 8 c 0.4091(1) 0.1240(2) 0.75034(8) . 1. 0
Na4 Na1+ 8 c 0.3538(1) 0.0918(2) 0.49883(8) . 1. 0
Na5 Na1+ 8 c 0.2866(1) 0.0497(2) 0.13330(7) . 1. 0
Fe1 Fe3+ 8 c 0.04030(4) 0.16794(7) 0.12542(2) . 1. 0
S1 S2- 8 c 0.35532(7) 0.2539(1) 0.37527(4) . 1. 0
S2 S2- 8 c 0.13211(8) 0.2599(1) 0.21337(4) . 1. 0
S3 S2- 8 c 0.13011(7) 0.2068(1) 0.54180(4) . 1. 0
S4 S2- 8 c 0.44541(7) 0.1519(1) 0.62070(4) . 1. 0
loop_
_atom_site_aniso_label
_atom_site_aniso_type_symbol
_atom_site_aniso_U_11
_atom_site_aniso_U_22
_atom_site_aniso_U_33
_atom_site_aniso_U_12
_atom_site_aniso_U_13
_atom_site_aniso_U_23
Na1 Na1+ 0.0184(7) 0.0395(8) 0.0304(8) -.0080(6) -.0043(6) 0.0137(7)
Na2 Na1+ 0.059(1) 0.0239(7) 0.0320(9) 0.0116(8) -.0169(8) -.0064(7)
Na3 Na1+ 0.0373(8) 0.0463(9) 0.0263(8) -.0124(8) -.0078(7) -.0126(8)
Na4 Na1+ 0.0398(9) 0.0404(8) 0.0275(8) 0.0053(8) 0.0002(7) 0.0094(7)
Na5 Na1+ 0.0206(7) 0.0226(7) 0.0331(8) 0.0020(6) 0.0014(6) -.0017(6)
Fe1 Fe3+ 0.0125(2) 0.0138(2) 0.0142(2) 0.0001(2) 0.0004(2) -.0001(2)
S1 S2- 0.0151(3) 0.0225(4) 0.0232(4) 0.0042(3) -.0031(4) -.0012(3)
S2 S2- 0.0235(4) 0.0239(4) 0.0165(4) -.0031(4) -.0006(4) -.0035(3)
S3 S2- 0.0219(4) 0.0221(4) 0.0166(4) 0.0016(4) 0.0030(4) -.0028(3)
S4 S2- 0.0193(4) 0.0146(4) 0.0227(4) -.0002(3) 0.0000(3) 0.0019(3)
#End of TTdata_62579-ICSD