
#(C) 2019 by FIZ Karlsruhe - Leibniz Institute for Information Infrastructure.  All rights reserved.
data_63028-ICSD
_database_code_ICSD 63028
_audit_creation_date 1989-06-19
_chemical_name_systematic 'Sodium borouranate'
_chemical_formula_structural 'Na B U O5'
_chemical_formula_sum 'B1 Na1 O5 U1'
_exptl_crystal_density_diffrn 5.5
_publ_section_title 'Synthese et structure du borouranate de sodium, Na B U O5.'
loop_
_citation_id
_citation_journal_full
_citation_year
_citation_journal_volume
_citation_page_first
_citation_page_last
_citation_journal_id_ASTM
primary 'Acta Crystallographica, Section C: Crystal Structure Communications'
1988 44 415 416 ACSCEE
loop_
_publ_author_name
'Gasperin, M.'
_cell_length_a 10.712(3)
_cell_length_b 5.780(1)
_cell_length_c 6.862(2)
_cell_angle_alpha 90.
_cell_angle_beta 90.
_cell_angle_gamma 90.
_cell_volume 424.86
_cell_formula_units_Z 4
_symmetry_space_group_name_H-M 'P c a m'
_symmetry_Int_Tables_number 57
_refine_ls_R_factor_all 0.075
loop_
_symmetry_equiv_pos_site_id
_symmetry_equiv_pos_as_xyz
1 '-x+1/2, y, z+1/2'
2 'x+1/2, -y, z'
3 'x, y, -z+1/2'
4 '-x, -y, -z'
5 'x+1/2, -y, -z+1/2'
6 '-x+1/2, y, -z'
7 '-x, -y, z+1/2'
8 'x, y, z'
loop_
_atom_type_symbol
_atom_type_oxidation_number
U6+ 6
Na1+ 1
B3+ 3
O2- -2
loop_
_atom_site_label
_atom_site_type_symbol
_atom_site_symmetry_multiplicity
_atom_site_Wyckoff_symbol
_atom_site_fract_x
_atom_site_fract_y
_atom_site_fract_z
_atom_site_B_iso_or_equiv
_atom_site_occupancy
_atom_site_attached_hydrogens
U1 U6+ 4 d 0.0674(1) 0.0979(1) 0.25 0.9(1) 1. 0
Na1 Na1+ 4 c 0.25 0.5999(14) 0 3.8(5) 1. 0
B1 B3+ 4 d 0.8519(15) 0.7967(33) 0.25 1.3(5) 1. 0
O1 O2- 8 e 0.4123(7) 0.1288(16) 0.4173(13) 1.5(3) 1. 0
O2 O2- 4 d 0.6682(11) 0.1528(22) 0.25 1.9(4) 1. 0
O3 O2- 4 d 0.2426(9) 0.3185(19) 0.25 1.1(3) 1. 0
O4 O2- 4 d 0.4649(12) 0.6544(22) 0.25 1.7(4) 1. 0
#End of TTdata_63028-ICSD