
#(C) 2019 by FIZ Karlsruhe - Leibniz Institute for Information Infrastructure.  All rights reserved.
data_63045-ICSD
_database_code_ICSD 63045
_audit_creation_date 1989-06-19
_chemical_name_systematic 'Sodium ytterbium cyclo-dodecasilicate (11.5/3/1)'
_chemical_formula_structural 'Na11.44 Yb3 (Si12 O36)'
_chemical_formula_sum 'Na11.44 O36 Si12 Yb3'
_exptl_crystal_density_diffrn 3.15
_cell_measurement_temperature 875.
_publ_section_title

;
Conduction channels in solid electrolytes: crystal structures of Na5 Yb Si O12
and Ag5 Yb Si4 O12.
;
loop_
_citation_id
_citation_journal_full
_citation_year
_citation_journal_volume
_citation_page_first
_citation_page_last
_citation_journal_id_ASTM
primary Kristallografiya 1988 33 82 89 KRISAJ
loop_
_publ_author_name
'Filipenko, O.S.'
'Atovmyan, L.O.'
'Ponomarev, V.I.'
'Alimova, L.D.'
'Leonova, L.S.'
'Bakaev, V.A.'
'Ukshe, E.A.'
_cell_length_a 22.082(5)
_cell_length_b 22.082(5)
_cell_length_c 12.716(9)
_cell_angle_alpha 90.
_cell_angle_beta 90.
_cell_angle_gamma 120.
_cell_volume 5369.8
_cell_formula_units_Z 6
_symmetry_space_group_name_H-M 'R -3 c H'
_symmetry_Int_Tables_number 167
_refine_ls_R_factor_all 0.047
loop_
_symmetry_equiv_pos_site_id
_symmetry_equiv_pos_as_xyz
1 'x-y, -y, -z+1/2'
2 '-x, -x+y, -z+1/2'
3 'y, x, -z+1/2'
4 'x-y, x, -z'
5 'y, -x+y, -z'
6 '-x, -y, -z'
7 '-x+y, y, z+1/2'
8 'x, x-y, z+1/2'
9 '-y, -x, z+1/2'
10 '-x+y, -x, z'
11 '-y, x-y, z'
12 'x, y, z'
13 'x-y+2/3, -y+1/3, -z+5/6'
14 '-x+2/3, -x+y+1/3, -z+5/6'
15 'y+2/3, x+1/3, -z+5/6'
16 'x-y+2/3, x+1/3, -z+1/3'
17 'y+2/3, -x+y+1/3, -z+1/3'
18 '-x+2/3, -y+1/3, -z+1/3'
19 '-x+y+2/3, y+1/3, z+5/6'
20 'x+2/3, x-y+1/3, z+5/6'
21 '-y+2/3, -x+1/3, z+5/6'
22 '-x+y+2/3, -x+1/3, z+1/3'
23 '-y+2/3, x-y+1/3, z+1/3'
24 'x+2/3, y+1/3, z+1/3'
25 'x-y+1/3, -y+2/3, -z+1/6'
26 '-x+1/3, -x+y+2/3, -z+1/6'
27 'y+1/3, x+2/3, -z+1/6'
28 'x-y+1/3, x+2/3, -z+2/3'
29 'y+1/3, -x+y+2/3, -z+2/3'
30 '-x+1/3, -y+2/3, -z+2/3'
31 '-x+y+1/3, y+2/3, z+1/6'
32 'x+1/3, x-y+2/3, z+1/6'
33 '-y+1/3, -x+2/3, z+1/6'
34 '-x+y+1/3, -x+2/3, z+2/3'
35 '-y+1/3, x-y+2/3, z+2/3'
36 'x+1/3, y+2/3, z+2/3'
loop_
_atom_type_symbol
_atom_type_oxidation_number
Yb3+ 3
Si4+ 4
O2- -2
Na1+ 1
loop_
_atom_site_label
_atom_site_type_symbol
_atom_site_symmetry_multiplicity
_atom_site_Wyckoff_symbol
_atom_site_fract_x
_atom_site_fract_y
_atom_site_fract_z
_atom_site_B_iso_or_equiv
_atom_site_occupancy
_atom_site_attached_hydrogens
Yb1 Yb3+ 18 e 0.2496(1) 0 0.25 1.14 1. 0
Si1 Si4+ 36 f 0.2346(1) 0.2187(1) 0.0198(2) 1.23 1. 0
Si2 Si4+ 36 f 0.0936(2) 0.1832(1) 0.1224(2) 1.46 1. 0
O1 O2- 36 f 0.2624(4) 0.0281(5) 0.0796(6) 2.46 1. 0
O2 O2- 36 f 0.0706(6) 0.2082(6) 0.0128(7) 3.63 1. 0
O3 O2- 36 f 0.0534(6) 0.1000(4) 0.1302(9) 4.04 1. 0
O4 O2- 36 f 0.3064(4) 0.2496(5) 0.0815(7) 3.23 1. 0
O5 O2- 36 f 0.0828(5) 0.2215(5) 0.2223(6) 2.98 1. 0
O6 O2- 36 f 0.1784(4) 0.2144(5) 0.1093(6) 2.7 1. 0
Na1 Na1+ 6 b 0 0 0 3.21 0.17(1) 0
Na2 Na1+ 6 a 0 0 0.25 3.13 0.17(1) 0
Na3 Na1+ 36 f 0.1422(3) 0.0685(4) 0.1389(3) 4.35 0.96(1) 0
Na4 Na1+ 18 e 0.2751(6) 0.2751(6) 0.25 5.78 0.48(1) 0
Na5 Na1+ 36 f 0.3293(18) 0.1497(17) 0.0332(15) 11.16 0.32(1) 0
Na6 Na1+ 36 f 0.3266(22) 0.1537(13) 0.1381(12) 10.01 0.33(1) 0
#End of TTdata_63045-ICSD