
#(C) 2019 by FIZ Karlsruhe - Leibniz Institute for Information Infrastructure.  All rights reserved.
data_63058-ICSD
_database_code_ICSD 63058
_audit_creation_date 1989-06-19
_audit_update_record 1995-10-17
_chemical_name_systematic 'Tetrasodium copper(II) bis(arsenate)'
_chemical_formula_structural 'Na4 Cu (As O4)2'
_chemical_formula_sum 'As2 Cu1 Na4 O8'
_exptl_crystal_density_diffrn 3.8
_publ_section_title

;
On the crystal chemistry of three copper(II)-arsenates: Cu3 (As O4)2-III, Na4
Cu (As O4)2, and K Cu4 (As O4)3.
;
loop_
_citation_id
_citation_journal_full
_citation_year
_citation_journal_volume
_citation_page_first
_citation_page_last
_citation_journal_id_ASTM
primary 'Monatshefte fuer Chemie' 1988 119 1103 1112 MOCMB7
loop_
_publ_author_name
'Effenberger, H.'
_cell_length_a 4.882(2)
_cell_length_b 5.870(2)
_cell_length_c 6.958(3)
_cell_angle_alpha 98.51(2)
_cell_angle_beta 90.76(2)
_cell_angle_gamma 105.97(2)
_cell_volume 189.29
_cell_formula_units_Z 1
_symmetry_space_group_name_H-M 'P -1'
_symmetry_Int_Tables_number 2
_refine_ls_R_factor_all 0.028
loop_
_symmetry_equiv_pos_site_id
_symmetry_equiv_pos_as_xyz
1 '-x, -y, -z'
2 'x, y, z'
loop_
_atom_type_symbol
_atom_type_oxidation_number
Na1+ 1
Cu2+ 2
As5+ 5
O2- -2
loop_
_atom_site_label
_atom_site_type_symbol
_atom_site_symmetry_multiplicity
_atom_site_Wyckoff_symbol
_atom_site_fract_x
_atom_site_fract_y
_atom_site_fract_z
_atom_site_B_iso_or_equiv
_atom_site_occupancy
_atom_site_attached_hydrogens
Na1 Na1+ 2 i 0.2898(2) 0.5767(2) 0.1692(1) . 1. 0
Na2 Na1+ 2 i 0.8394(2) 0.7401(2) 0.4255(2) . 1. 0
Cu1 Cu2+ 1 a 0 0 0 . 1. 0
As1 As5+ 2 i 0.60051(4) 0.19540(3) 0.26541(3) . 1. 0
O1 O2- 2 i 0.6866(3) 0.2751(3) 0.5034(2) . 1. 0
O2 O2- 2 i 0.6830(3) -.0590(2) 0.1691(2) . 1. 0
O3 O2- 2 i 0.2396(3) 0.1440(3) 0.2373(2) . 1. 0
O4 O2- 2 i 0.7636(3) 0.4271(3) 0.1544(2) . 1. 0
loop_
_atom_site_aniso_label
_atom_site_aniso_type_symbol
_atom_site_aniso_U_11
_atom_site_aniso_U_22
_atom_site_aniso_U_33
_atom_site_aniso_U_12
_atom_site_aniso_U_13
_atom_site_aniso_U_23
Na1 Na1+ 0.0172(4) 0.0197(4) 0.0108(4) 0.0033(3) -.0004(3) 0.0018(3)
Na2 Na1+ 0.0185(4) 0.0267(4) 0.0136(5) 0.0083(3) -.0013(3) -.0034(4)
Cu1 Cu2+ 0.0074(1) 0.0124(1) 0.0071(1) 0.0032(1) 0.0003(1) -.0002(1)
As1 As5+ 0.0075(1) 0.0113(1) 0.0062(1) 0.0029(1) -.0001(1) -.0005(1)
O1 O2- 0.0136(6) 0.0227(7) 0.0067(6) 0.0021(5) -.0012(5) -.0019(5)
O2 O2- 0.0111(5) 0.0120(5) 0.0123(7) 0.0037(4) 0.0036(5) -.0003(5)
O3 O2- 0.0079(5) 0.0296(8) 0.0104(7) 0.0063(5) -.0024(5) -.0054(6)
O4 O2- 0.0199(7) 0.0135(5) 0.0105(7) 0.0016(5) -.0006(5) 0.0028(5)
#End of TTdata_63058-ICSD