
#(C) 2019 by FIZ Karlsruhe - Leibniz Institute for Information Infrastructure.  All rights reserved.
data_63133-ICSD
_database_code_ICSD 63133
_audit_creation_date 1989-06-19
_chemical_name_systematic 'Trisodium diarsenotriantimonate'
_chemical_formula_structural 'Na3 (As2 Sb3 O14)'
_chemical_formula_sum 'As2 Na3 O14 Sb3'
_exptl_crystal_density_diffrn 4.65
_publ_section_title
'Na3 Sb3 As2 O14: un Arsenioantimoniate a Tunnels Entrecroises.'
loop_
_citation_id
_citation_journal_full
_citation_year
_citation_journal_volume
_citation_page_first
_citation_page_last
_citation_journal_id_ASTM
primary 'Acta Crystallographica, Section C: Crystal Structure Communications'
1988 44 1155 1157 ACSCEE
loop_
_publ_author_name
'Haddad, A.'
'Jouini, T.'
'Ghedira, M.'
_cell_length_a 12.67(4)
_cell_length_b 7.31(1)
_cell_length_c 6.52(1)
_cell_angle_alpha 90.
_cell_angle_beta 107.1(2)
_cell_angle_gamma 90.
_cell_volume 577.17
_cell_formula_units_Z 2
_symmetry_space_group_name_H-M 'P 1 21/a 1'
_symmetry_Int_Tables_number 14
_refine_ls_R_factor_all 0.0359
loop_
_symmetry_equiv_pos_site_id
_symmetry_equiv_pos_as_xyz
1 'x+1/2, -y+1/2, z'
2 '-x, -y, -z'
3 '-x+1/2, y+1/2, -z'
4 'x, y, z'
loop_
_atom_type_symbol
_atom_type_oxidation_number
Sb5+ 5
As5+ 5
Na1+ 1
O2- -2
loop_
_atom_site_label
_atom_site_type_symbol
_atom_site_symmetry_multiplicity
_atom_site_Wyckoff_symbol
_atom_site_fract_x
_atom_site_fract_y
_atom_site_fract_z
_atom_site_B_iso_or_equiv
_atom_site_occupancy
_atom_site_attached_hydrogens
Sb1 Sb5+ 2 c 0.5 0 0 . 1. 0
Sb2 Sb5+ 4 e 0.7531(1) 0.2594(1) 0.0232(1) . 1. 0
As1 As5+ 4 e 0.8391(1) 0.2654(2) 0.5840(2) . 1. 0
Na1 Na1+ 4 e 0.0671(4) 0.2136(7) 0.4641(9) . 1. 0
Na2 Na1+ 2 a 0 0 0 . 1. 0
O1 O2- 4 e 0.5941(6) 0.2008(11) 0.9667(14) . 1. 0
O2 O2- 4 e 0.9141(6) 0.3131(11) 0.0986(13) . 1. 0
O3 O2- 4 e 0.7386(6) 0.2261(11) 0.7059(13) . 1. 0
O4 O2- 4 e 0.7567(6) 0.3118(12) 0.3287(14) . 1. 0
O5 O2- 4 e 0.9073(6) 0.4666(11) 0.6838(13) . 1. 0
O6 O2- 4 e 0.5725(6) 0.5958(11) 0.3912(14) . 1. 0
O7 O2- 4 e 0.8014(6) 0.0061(11) 0.0648(12) . 1. 0
loop_
_atom_site_aniso_label
_atom_site_aniso_type_symbol
_atom_site_aniso_beta_11
_atom_site_aniso_beta_22
_atom_site_aniso_beta_33
_atom_site_aniso_beta_12
_atom_site_aniso_beta_13
_atom_site_aniso_beta_23
Sb1 Sb5+ 0.0011(1) 0.0040(2) 0.0048(3) 0.0000(1) 0.0011(1) -.0002(2)
Sb2 Sb5+ 0.0013(1) 0.0037(1) 0.0038(2) 0.0000(1) 0.0011(1) -.0002(1)
As1 As5+ 0.0015(1) 0.0054(2) 0.0044(3) 0.0000(1) 0.0012(1) -.0006(2)
Na1 Na1+ 0.0029(3) 0.0105(10) 0.0141(15) -.0006(5) 0.0020(6) -.0007(10)
Na2 Na1+ 0.0042(5) 0.0115(15) 0.0103(18) 0.0003(8) 0.0010(8) 0.0007(16)
O1 O2- 0.0009(5) 0.0074(15) 0.0078(22) -.0004(7) 0.0009(9) 0.0006(15)
O2 O2- 0.0007(4) 0.0061(14) 0.0062(21) 0.0002(7) 0.0005(8) 0.0019(15)
O3 O2- 0.0018(5) 0.0075(15) 0.0062(21) -.0012(7) 0.0023(9) -.0013(16)
O4 O2- 0.0020(5) 0.0086(16) 0.0053(21) 0.0009(7) 0.0015(9) -.0012(15)
O5 O2- 0.0019(5) 0.0061(14) 0.007(2) -.0006(7) 0.0004(8) -.0013(16)
O6 O2- 0.0018(5) 0.0073(15) 0.0091(23) -.0007(7) 0.0016(9) -.0013(16)
O7 O2- 0.0020(5) 0.0038(13) 0.0092(20) -.0004(7) 0.0012(8) -.0012(16)
#End of TTdata_63133-ICSD