
#(C) 2019 by FIZ Karlsruhe - Leibniz Institute for Information Infrastructure.  All rights reserved.
data_63264-ICSD
_database_code_ICSD 63264
_audit_creation_date 1989-12-04
_audit_update_record 2008-08-01
_chemical_name_systematic
'Aluminium magnesium sodium oxide (10.37/0.63/1.63/17)'
_chemical_formula_structural '(Al10.37 Mg0.63 O16) (Na1.63 O)'
_chemical_formula_sum 'Al10.37 Mg0.63 Na1.63 O17'
_chemical_name_structure_type HAl11O17
_chemical_name_mineral Diaoyudaoite
_exptl_crystal_density_diffrn 3.27
_cell_measurement_temperature 593.
_publ_section_title

;
Host lattices and superionic properties in beta- and beta''-alumina. I.
Structures and local correlations.
;
loop_
_citation_id
_citation_journal_full
_citation_year
_citation_journal_volume
_citation_page_first
_citation_page_last
_citation_journal_id_ASTM
primary 'Physical Review B: Condensed Matter and Materials Physics' 1986 34 5838
5849 PRBMDO
loop_
_publ_author_name
'Collin, G.'
'Boilot, J.P.'
'Colomban, P.'
'Comes, R.'
_cell_length_a 5.630(3)
_cell_length_b 5.630(3)
_cell_length_c 22.340(4)
_cell_angle_alpha 90.
_cell_angle_beta 90.
_cell_angle_gamma 120.
_cell_volume 613.24
_cell_formula_units_Z 2
_symmetry_space_group_name_H-M 'P 63/m m c'
_symmetry_Int_Tables_number 194
_refine_ls_R_factor_all 0.0267
loop_
_symmetry_equiv_pos_site_id
_symmetry_equiv_pos_as_xyz
1 'x, x-y, -z+1/2'
2 '-x+y, y, -z+1/2'
3 '-y, -x, -z+1/2'
4 '-x+y, -x, -z+1/2'
5 '-y, x-y, -z+1/2'
6 'x, y, -z+1/2'
7 '-x, -x+y, z+1/2'
8 'x-y, -y, z+1/2'
9 'y, x, z+1/2'
10 'x-y, x, z+1/2'
11 'y, -x+y, z+1/2'
12 '-x, -y, z+1/2'
13 '-x, -x+y, -z'
14 'x-y, -y, -z'
15 'y, x, -z'
16 'x-y, x, -z'
17 'y, -x+y, -z'
18 '-x, -y, -z'
19 'x, x-y, z'
20 '-x+y, y, z'
21 '-y, -x, z'
22 '-x+y, -x, z'
23 '-y, x-y, z'
24 'x, y, z'
loop_
_atom_type_symbol
_atom_type_oxidation_number
Al3+ 3
Mg2+ 2
Al3+ 3
O2- -2
Na1+ 1
loop_
_atom_site_label
_atom_site_type_symbol
_atom_site_symmetry_multiplicity
_atom_site_Wyckoff_symbol
_atom_site_fract_x
_atom_site_fract_y
_atom_site_fract_z
_atom_site_B_iso_or_equiv
_atom_site_occupancy
_atom_site_attached_hydrogens
Al1 Al3+ 12 k -.16798(1) -.33596(2) 0.10610(1) . 1. 0
Al2 Al3+ 4 f 0.3333 0.6667 0.02482(1) . 0.685 0
Mg1 Mg2+ 4 f 0.3333 0.6667 0.02482(1) . 0.315 0
Al3 Al3+ 4 f 0.3333 0.6667 0.17576(1) . 1. 0
Al4 Al3+ 2 a 0 0 0 . 1. 0
O1 O2- 12 k 0.15412(2) 0.30824(4) 0.04998(1) . 1. 0
O2 O2- 12 k 0.50305(2) 0.00610(4) 0.14633(1) . 1. 0
O3 O2- 4 f 0.6667 0.3333 0.05725(2) . 1. 0
O4 O2- 4 e 0 0 0.14219(2) . 1. 0
O5 O2- 2 c 0.3333 0.6667 0.25 . 1. 0
Na1 Na1+ 2 d 0.6667 0.3333 0.25 . 0.675(15) 0
Na2 Na1+ 6 h 0.8922(11) 0.7844(22) 0.25 . 0.3183(67) 0
loop_
_atom_site_aniso_label
_atom_site_aniso_type_symbol
_atom_site_aniso_beta_11
_atom_site_aniso_beta_22
_atom_site_aniso_beta_33
_atom_site_aniso_beta_12
_atom_site_aniso_beta_13
_atom_site_aniso_beta_23
Al1 Al3+ 0.00412(3) 0.00349(3) 0.00022 0.00175(2) 0.00001 0.00001(1)
Al2 Al3+ 0.00309(3) 0.00309(3) 0.00016 0.00155(2) 0 0
Mg1 Mg2+ 0.00309(3) 0.00309(3) 0.00016 0.00155(2) 0 0
Al3 Al3+ 0.00617(4) 0.00617(4) 0.00014 0.00309(2) 0 0
Al4 Al3+ 0.00368(4) 0.00368(4) 0.00016 0.00184(2) 0 0
O1 O2- 0.00512(4) 0.00323(5) 0.00021 0.00162(3) -0.00001(1) -0.00002(1)
O2 O2- 0.00403(4) 0.00403(4) 0.00035 0.00175(5) 0.00003(1) -0.00003(1)
O3 O2- 0.00475(6) 0.00475(6) 0.00017(1) 0.00238(3) 0 0
O4 O2- 0.00361(6) 0.00361(6) 0.00022(1) 0.00180(3) 0 0
O5 O2- 0.0661(30) 0.0661(30) 0.0107(16) 0.03305(150) 0 0
Na1 Na1+ 0.1324(60) 0.1324(60) 0.0615(40) 0.0662(30) 0 0
Na2 Na1+ 0.0978(50) 0.2021(110) 0.054(4) 0.1011(55) 0 0
#End of TTdata_63264-ICSD