
#(C) 2019 by FIZ Karlsruhe - Leibniz Institute for Information Infrastructure.  All rights reserved.
data_63353-ICSD
_database_code_ICSD 63353
_audit_creation_date 1990-06-08
_audit_update_record 2014-08-01
_chemical_name_systematic 'Sodium nickel arsenate(V)'
_chemical_formula_structural 'Na Ni (As O4)'
_chemical_formula_sum 'As1 Na1 Ni1 O4'
_chemical_name_structure_type NaNiAsO4
_exptl_crystal_density_diffrn 3.91
_publ_section_title 'The space group of sodium nickel arsenate, Na Ni As O4'
loop_
_citation_id
_citation_journal_full
_citation_year
_citation_journal_volume
_citation_page_first
_citation_page_last
_citation_journal_id_ASTM
primary 'Zeitschrift fuer Naturforschung, B: A Journal of Chemical Sciences'
1987 42 1365 1366 ZNBSEN
loop_
_publ_author_name
'Jones, P.G.'
'Range, K.J.'
'Meister, H.'
_cell_length_a 4.955(3)
_cell_length_b 4.955(3)
_cell_length_c 26.470(30)
_cell_angle_alpha 90.
_cell_angle_beta 90.
_cell_angle_gamma 120.
_cell_volume 562.82
_cell_formula_units_Z 6
_symmetry_space_group_name_H-M 'R -3 H'
_symmetry_Int_Tables_number 148
_refine_ls_R_factor_all 0.044
loop_
_symmetry_equiv_pos_site_id
_symmetry_equiv_pos_as_xyz
1 'x-y, x, -z'
2 'y, -x+y, -z'
3 '-x, -y, -z'
4 '-x+y, -x, z'
5 '-y, x-y, z'
6 'x, y, z'
7 'x-y+2/3, x+1/3, -z+1/3'
8 'y+2/3, -x+y+1/3, -z+1/3'
9 '-x+2/3, -y+1/3, -z+1/3'
10 '-x+y+2/3, -x+1/3, z+1/3'
11 '-y+2/3, x-y+1/3, z+1/3'
12 'x+2/3, y+1/3, z+1/3'
13 'x-y+1/3, x+2/3, -z+2/3'
14 'y+1/3, -x+y+2/3, -z+2/3'
15 '-x+1/3, -y+2/3, -z+2/3'
16 '-x+y+1/3, -x+2/3, z+2/3'
17 '-y+1/3, x-y+2/3, z+2/3'
18 'x+1/3, y+2/3, z+2/3'
loop_
_atom_type_symbol
_atom_type_oxidation_number
Ni2+ 2
As5+ 5
Na1+ 1
O2- -2
loop_
_atom_site_label
_atom_site_type_symbol
_atom_site_symmetry_multiplicity
_atom_site_Wyckoff_symbol
_atom_site_fract_x
_atom_site_fract_y
_atom_site_fract_z
_atom_site_B_iso_or_equiv
_atom_site_occupancy
_atom_site_attached_hydrogens
Ni1 Ni2+ 6 c 0 0 0.16443(2) 0.59(1) 1. 0
As1 As5+ 6 c 0 0 0.56604(1) 0.51(1) 1. 0
Na1 Na1+ 6 c 0 0 0.28835(8) 2.70(6) 1. 0
O1 O2- 18 f 0.0024(3) 0.3449(3) 0.1212(1) 0.78(3) 1. 0
O2 O2- 6 c 0 0 0.6285(1) 2.26(8) 1. 0
#End of TTdata_63353-ICSD