
#(C) 2019 by FIZ Karlsruhe - Leibniz Institute for Information Infrastructure.  All rights reserved.
data_63480-ICSD
_database_code_ICSD 63480
_audit_creation_date 1992-08-20
_audit_update_record 2006-04-01
_chemical_name_systematic 'Sodium catena-vanadate - HT'
_chemical_formula_structural 'Na (V O3)'
_chemical_formula_sum 'Na1 O3 V1'
_chemical_name_structure_type NaKV2O6
_exptl_crystal_density_diffrn 2.83
_cell_measurement_temperature 698.
_publ_section_title

;
Crystal chemistry of vanadate pyroxenes: crystal structure refinement, na
anisotropy and rigid body analysis of the thermal vibration in ferroelectric
Na V O3
;
loop_
_citation_id
_citation_journal_full
_citation_year
_citation_journal_volume
_citation_page_first
_citation_page_last
_citation_journal_id_ASTM
primary Ferroelectrics 1990 107 219 224 FEROA8
loop_
_publ_author_name
'Shaikh, A.M.'
_cell_length_a 10.570(2)
_cell_length_b 9.692(3)
_cell_length_c 5.866(1)
_cell_angle_alpha 90.
_cell_angle_beta 107.63(2)
_cell_angle_gamma 90.
_cell_volume 572.71
_cell_formula_units_Z 8
_symmetry_space_group_name_H-M 'C 1 2/c 1'
_symmetry_Int_Tables_number 15
_refine_ls_R_factor_all 0.063
loop_
_symmetry_equiv_pos_site_id
_symmetry_equiv_pos_as_xyz
1 'x, -y, z+1/2'
2 '-x, -y, -z'
3 '-x, y, -z+1/2'
4 'x, y, z'
5 'x+1/2, -y+1/2, z+1/2'
6 '-x+1/2, -y+1/2, -z'
7 '-x+1/2, y+1/2, -z+1/2'
8 'x+1/2, y+1/2, z'
loop_
_atom_type_symbol
_atom_type_oxidation_number
Na1+ 1
V5+ 5
O2- -2
loop_
_atom_site_label
_atom_site_type_symbol
_atom_site_symmetry_multiplicity
_atom_site_Wyckoff_symbol
_atom_site_fract_x
_atom_site_fract_y
_atom_site_fract_z
_atom_site_B_iso_or_equiv
_atom_site_occupancy
_atom_site_attached_hydrogens
Na1 Na1+ 4 e 0 0.9092(4) 0.25 3.125 1. 0
Na2 Na1+ 4 e 0 0.2941(5) 0.25 5.142 1. 0
V1 V5+ 8 f 0.2925(1) 0.0883(1) 0.2593(1) 1.968 1. 0
O1 O2- 8 f 0.1288(4) 0.0985(5) 0.1661(7) 2.929 1. 0
O2 O2- 8 f 0.3559(5) 0.2436(6) 0.3194(9) 4.173 1. 0
O3 O2- 8 f 0.3522(4) 0.0069(6) 0.0320(7) 3.817 1. 0
#End of TTdata_63480-ICSD