
#(C) 2019 by FIZ Karlsruhe - Leibniz Institute for Information Infrastructure.  All rights reserved.
data_63547-ICSD
_database_code_ICSD 63547
_audit_creation_date 1988-12-19
_audit_update_record 2012-08-01
_chemical_name_systematic 'Sodium calcium tecto-alumosilicate *'
_chemical_formula_structural 'Na.25 Ca.71 Al2 Si2 O8'
_chemical_formula_sum 'Al2 Ca0.71 Na0.25 O8 Si2'
_chemical_name_structure_type Feldspar#-(TC,P1-,i52)-Anorthite
_chemical_name_mineral Anorthite
_exptl_crystal_density_diffrn 2.71
_publ_section_title 'Crystal structure refinement of a lunar anorthite, An(94)'
loop_
_citation_id
_citation_journal_full
_citation_year
_citation_journal_volume
_citation_page_first
_citation_page_last
_citation_journal_id_ASTM
primary 'Journal of Geophysical Research, B' 1986 91 91 97 JJGBDU
loop_
_publ_author_name
'Smyth, J.R.'
_cell_length_a 8.173(2)
_cell_length_b 12.858(3)
_cell_length_c 14.170(3)
_cell_angle_alpha 93.17(2)
_cell_angle_beta 115.95(2)
_cell_angle_gamma 91.22(2)
_cell_volume 1335.2
_cell_formula_units_Z 8
_symmetry_space_group_name_H-M 'P -1'
_symmetry_Int_Tables_number 2
_refine_ls_R_factor_all 0.042
loop_
_symmetry_equiv_pos_site_id
_symmetry_equiv_pos_as_xyz
1 '-x, -y, -z'
2 'x, y, z'
loop_
_atom_type_symbol
_atom_type_oxidation_number
Ca2+ 2
Na1+ 1
Ca2+ 2
Si4+ 4
Al3+ 3
Si4+ 4
Al3+ 3
Si4+ 4
Al3+ 3
Si4+ 4
Al3+ 3
Si4+ 4
Al3+ 3
Si4+ 4
Al3+ 3
Si4+ 4
Al3+ 3
O2- -2
loop_
_atom_site_label
_atom_site_type_symbol
_atom_site_symmetry_multiplicity
_atom_site_Wyckoff_symbol
_atom_site_fract_x
_atom_site_fract_y
_atom_site_fract_z
_atom_site_B_iso_or_equiv
_atom_site_occupancy
_atom_site_attached_hydrogens
Ca1 Ca2+ 2 i 0.2638(6) 0.0032(9) 0.0755(7) 1.17(2) 0.34(3) 0
Ca2 Ca2+ 2 i 0.2670(5) 0.9796(6) 0.0905(5) 0.56(2) 0.52(3) 0
Ca3 Ca2+ 2 i 0.2676(2) 0.0286(1) 0.5460(1) . 1. 0
Na1 Na1+ 2 i 0.7739(2) 0.5358(1) 0.5420(1) . 1. 0
Ca4 Ca2+ 2 i 0.7690(3) 0.5304(4) 0.0499(4) . 0.41(3) 0
Ca5 Ca2+ 2 i 0.7638(4) 0.5007(2) 0.0784(2) . 0.59(3) 0
Si1 Si4+ 2 i 0.0089(3) 0.1586(2) 0.1043(2) . 1. 0
Al1 Al3+ 2 i 0.0060(4) 0.1614(2) 0.6117(2) . 1. 0
Si2 Si4+ 2 i 0.5068(4) 0.6571(2) 0.6040(2) . 1. 0
Al2 Al3+ 2 i 0.4997(3) 0.6658(2) 0.1123(2) . 1. 0
Al3 Al3+ 2 i 0.9939(4) 0.8153(2) 0.1188(2) . 1. 0
Si3 Si4+ 2 i 0.0062(3) 0.8160(2) 0.6137(2) . 1. 0
Al4 Al3+ 2 i 0.5049(4) 0.3145(2) 0.6199(2) . 1. 0
Si4 Si4+ 2 i 0.5046(3) 0.3196(2) 0.1101(2) . 1. 0
Al5 Al3+ 2 i 0.6853(3) 0.1131(2) 0.1528(2) . 1. 0
Si5 Si4+ 2 i 0.6801(3) 0.1041(2) 0.6630(2) . 1. 0
Si6 Si4+ 2 i 0.1726(3) 0.6065(2) 0.1515(2) . 1. 0
Al6 Al3+ 2 i 0.1908(4) 0.6114(2) 0.6653(2) . 1. 0
Si7 Si4+ 2 i 0.6739(3) 0.8828(2) 0.1859(2) . 1. 0
Al7 Al3+ 2 i 0.6805(4) 0.8733(2) 0.6736(2) . 1. 0
Si8 Si4+ 2 i 0.1772(4) 0.3797(2) 0.6753(2) . 1. 0
Al8 Al3+ 2 i 0.1869(4) 0.3766(2) 0.1807(2) . 1. 0
O1 O2- 2 i 0.0228(8) 0.1255(5) 0.9957(4) . 1. 0
O2 O2- 2 i 0.9861(8) 0.1261(4) 0.4848(5) . 1. 0
O3 O2- 2 i 0.4920(8) 0.6248(4) 0.4872(4) . 1. 0
O4 O2- 2 i 0.5103(9) 0.6245(4) 0.9931(5) . 1. 0
O5 O2- 2 i 0.5768(8) 0.9889(4) 0.1431(5) . 1. 0
O6 O2- 2 i 0.5732(8) 0.9898(4) 0.6378(5) . 1. 0
O7 O2- 2 i 0.0737(8) 0.4900(4) 0.6353(5) . 1. 0
O8 O2- 2 i 0.0725(8) 0.4932(4) 0.1378(5) . 1. 0
O9 O2- 2 i 0.8182(8) 0.1022(4) 0.0833(5) . 1. 0
O10 O2- 2 i 0.8098(8) 0.0995(4) 0.6036(5) . 1. 0
O11 O2- 2 i 0.3276(8) 0.5967(5) 0.6017(5) . 1. 0
O12 O2- 2 i 0.2887(8) 0.6029(5) 0.0829(5) . 1. 0
O13 O2- 2 i 0.8140(8) 0.8555(5) 0.1384(5) . 1. 0
O14 O2- 2 i 0.8127(8) 0.8534(4) 0.6061(4) . 1. 0
O15 O2- 2 i 0.3018(8) 0.3544(5) 0.6158(5) . 1. 0
O16 O2- 2 i 0.3386(8) 0.3555(5) 0.1309(5) . 1. 0
O17 O2- 2 i 0.0120(8) 0.2795(4) 0.1353(5) . 1. 0
O18 O2- 2 i 0.0169(8) 0.2919(4) 0.6476(5) . 1. 0
O19 O2- 2 i 0.5130(8) 0.7770(4) 0.6357(4) . 1. 0
O20 O2- 2 i 0.5146(8) 0.7959(4) 0.1504(5) . 1. 0
O21 O2- 2 i 0.0010(8) 0.6818(5) 0.1048(5) . 1. 0
O22 O2- 2 i 0.0078(7) 0.6913(4) 0.6003(4) . 1. 0
O23 O2- 2 i 0.5166(8) 0.1777(4) 0.6107(4) . 1. 0
O24 O2- 2 i 0.5086(8) 0.1931(5) 0.0991(5) . 1. 0
O25 O2- 2 i 0.1822(8) 0.1068(5) 0.1887(5) . 1. 0
O26 O2- 2 i 0.2094(8) 0.1030(4) 0.6833(4) . 1. 0
O27 O2- 2 i 0.6993(8) 0.6083(4) 0.6829(5) . 1. 0
O28 O2- 2 i 0.6957(8) 0.6045(4) 0.2009(4) . 1. 0
O29 O2- 2 i 0.2020(8) 0.8728(4) 0.2121(5) . 1. 0
O30 O2- 2 i 0.1757(8) 0.8592(5) 0.7169(5) . 1. 0
O31 O2- 2 i 0.6910(8) 0.3641(5) 0.7304(5) . 1. 0
O32 O2- 2 i 0.6969(8) 0.3670(5) 0.1999(5) . 1. 0
loop_
_atom_site_aniso_label
_atom_site_aniso_type_symbol
_atom_site_aniso_U_11
_atom_site_aniso_U_22
_atom_site_aniso_U_33
_atom_site_aniso_U_12
_atom_site_aniso_U_13
_atom_site_aniso_U_23
Ca3 Ca2+ 0.0049(3) 0.0033(1) 0.0029(1) 0.0005(1) 0.0011(1) -.0013(1)
Na1 Na1+ 0.0031(3) 0.0013(1) 0.0009(1) 0.0006(1) 0.0002(1) 0.0002(1)
Ca4 Ca2+ 0.0033(6) 0.0017(3) 0.0013(3) 0.0003(3) 0.0000(3) -.0001(2)
Ca5 Ca2+ 0.0017(4) 0.0018(2) 0.0006(2) 0.0003(2) 0.0003(2) -.0003(1)
Si1 Si4+ 0.0031(4) 0.0011(1) 0.0009(1) -.0005(2) 0.0006(2) 0.0000(1)
Al1 Al3+ 0.0038(5) 0.0010(1) 0.0011(1) -.0007(2) 0.0010(2) -.0002(1)
Si2 Si4+ 0.0035(4) 0.0011(1) 0.0009(1) 0.0001(2) 0.0009(2) 0.0002(1)
Al2 Al3+ 0.0043(4) 0.0011(1) 0.0009(1) 0.0002(2) 0.0009(2) 0.0004(1)
Al3 Al3+ 0.0040(5) 0.0010(1) 0.0009(1) -.0001(2) 0.0011(2) 0.0002(1)
Si3 Si4+ 0.0029(4) 0.0009(1) 0.0009(1) 0.0000(2) 0.0005(2) 0.0001(1)
Al4 Al3+ 0.0044(5) 0.0013(2) 0.0008(2) 0.0005(2) 0.0008(2) 0.0001(1)
Si4 Si4+ 0.0035(4) 0.0014(1) 0.0007(1) 0.0008(2) 0.0008(2) 0.0002(1)
Al5 Al3+ 0.0021(4) 0.0011(1) 0.0013(2) 0.0004(2) 0.0004(2) 0.0000(1)
Si5 Si4+ 0.0017(4) 0.0011(1) 0.0012(1) 0.0002(2) 0.0004(2) -.0001(1)
Si6 Si4+ 0.0044(4) 0.0007(1) 0.0012(1) -.0004(2) 0.0011(2) 0.0003(1)
Al6 Al3+ 0.0045(5) 0.0008(1) 0.0010(1) -.0008(2) 0.0009(2) 0.0002(1)
Si7 Si4+ 0.0028(4) 0.0007(1) 0.0010(1) 0.0002(2) 0.0008(2) 0.0002(1)
Al7 Al3+ 0.0033(5) 0.0008(1) 0.0008(1) 0.0000(2) 0.0005(2) 0.0002(1)
Si8 Si4+ 0.0035(4) 0.0011(1) 0.0013(1) 0.0001(2) 0.0009(2) 0.0002(1)
Al8 Al3+ 0.0030(5) 0.0012(2) 0.0014(2) 0.0000(2) 0.0009(2) 0.0002(1)
O1 O2- 0.0048(10) 0.0021(4) 0.0006(3) 0.0003(5) 0.0006(5) -.0002(3)
O2 O2- 0.0082(12) 0.0013(4) 0.0012(4) 0.0003(5) 0.0024(5) -.0003(3)
O3 O2- 0.0070(12) 0.0011(3) 0.0016(5) 0.0006(5) 0.0016(5) 0.0008(3)
O4 O2- 0.0105(13) 0.0012(4) 0.0016(4) -.0003(5) 0.0027(6) 0.0005(3)
O5 O2- 0.0027(10) 0.0011(4) 0.0017(4) -.0003(5) 0.0002(5) 0.0000(3)
O6 O2- 0.0027(10) 0.0008(4) 0.0020(4) -.0010(5) 0.0005(5) -.0002(3)
O7 O2- 0.0027(10) 0.0007(3) 0.0017(4) 0.0005(4) 0.0010(5) 0.0007(3)
O8 O2- 0.0035(10) 0.0009(3) 0.0015(4) 0.0008(5) 0.0012(5) 0.0006(3)
O9 O2- 0.0052(10) 0.0008(3) 0.0021(4) -.0005(4) 0.0020(5) 0.0003(3)
O10 O2- 0.0055(11) 0.0012(3) 0.0023(4) -.0003(5) 0.0020(5) -.0002(3)
O11 O2- 0.0046(11) 0.0015(4) 0.0019(4) -.0006(5) 0.0018(5) -.0003(3)
O12 O2- 0.0022(9) 0.0016(4) 0.0025(4) -.0005(4) 0.0015(5) -.0005(3)
O13 O2- 0.0056(11) 0.0017(4) 0.0043(5) 0.0000(5) 0.0030(6) -.0004(3)
O14 O2- 0.0043(10) 0.0015(3) 0.0012(3) 0.0008(4) 0.0013(5) 0.0007(3)
O15 O2- 0.0060(11) 0.0014(4) 0.0037(4) 0.0003(5) 0.0030(6) -.0001(3)
O16 O2- 0.0068(11) 0.0024(4) 0.0045(5) 0.0015(5) 0.0035(6) 0.0002(3)
O17 O2- 0.0068(11) 0.0013(3) 0.0013(3) -.0005(5) 0.0005(5) 0.0001(3)
O18 O2- 0.0081(12) 0.0009(3) 0.0016(3) 0.0007(4) 0.0015(5) 0.0003(3)
O19 O2- 0.0032(10) 0.0015(3) 0.0022(3) -.0005(4) 0.0021(5) -.0004(3)
O20 O2- 0.0032(10) 0.0017(3) 0.0021(3) -.0013(4) 0.0010(5) -.0003(3)
O21 O2- 0.0019(9) 0.0018(3) 0.0019(4) 0.0018(4) 0.0000(5) 0.0000(3)
O22 O2- 0.0027(9) 0.0011(3) 0.0013(4) 0.0013(4) 0.0001(5) 0.0010(3)
O23 O2- 0.0059(10) 0.0008(3) 0.0009(3) -.0007(4) 0.0010(5) 0.0001(2)
O24 O2- 0.0087(12) 0.0020(4) 0.0012(4) -.0006(5) 0.0019(5) -.0005(3)
O25 O2- 0.0043(10) 0.0022(4) 0.0010(3) 0.0004(5) -.0002(5) 0.0000(3)
O26 O2- 0.0047(10) 0.0020(4) 0.0006(3) 0.0002(5) 0.0000(5) 0.0000(3)
O27 O2- 0.0055(11) 0.0013(3) 0.0022(4) 0.0002(4) 0.0011(5) -.0001(3)
O28 O2- 0.0069(10) 0.0009(3) 0.0007(3) 0.0004(4) 0.0003(5) 0.0002(2)
O29 O2- 0.0054(11) 0.0012(3) 0.0016(3) -.0002(5) 0.0000(5) -.0002(3)
O30 O2- 0.0079(11) 0.0016(4) 0.0017(3) -.0003(5) 0.0000(5) -.0002(3)
O31 O2- 0.0056(11) 0.0020(4) 0.0022(4) 0.0007(5) -.0003(5) 0.0001(3)
O32 O2- 0.0054(11) 0.0024(4) 0.0020(4) 0.0010(5) -.0004(5) -.0006(3)
#End of TTdata_63547-ICSD