
#(C) 2019 by FIZ Karlsruhe - Leibniz Institute for Information Infrastructure.  All rights reserved.
data_63570-ICSD
_database_code_ICSD 63570
_audit_creation_date 1988-12-19
_audit_update_record 2006-04-01
_chemical_name_systematic 'Indium sodium oxide (5/24/15)'
_chemical_formula_structural 'In5 Na24 O15'
_chemical_formula_sum 'In5 Na24 O15'
_chemical_name_structure_type Na6PbO4
_exptl_crystal_density_diffrn 3.34
_publ_section_title 'A new cluster type: In5(6+) in Na24 In5 O15'
loop_
_citation_id
_citation_journal_full
_citation_year
_citation_journal_volume
_citation_page_first
_citation_page_last
_citation_journal_id_ASTM
primary 'Journal of the Less-Common Metals' 1986 116 129 136 JCOMAH
loop_
_publ_author_name
'Wagner, G.'
'Hoppe, R.'
_cell_length_a 11.0759(7)
_cell_length_b 11.0759(7)
_cell_length_c 11.0759(7)
_cell_angle_alpha 90.
_cell_angle_beta 90.
_cell_angle_gamma 90.
_cell_volume 1358.74
_cell_formula_units_Z 2
_symmetry_space_group_name_H-M 'I -4 3 m'
_symmetry_Int_Tables_number 217
_refine_ls_R_factor_all 0.06
loop_
_symmetry_equiv_pos_site_id
_symmetry_equiv_pos_as_xyz
1 '-z, -y, x'
2 '-y, -x, z'
3 '-x, -z, y'
4 '-z, -x, y'
5 '-y, -z, x'
6 '-x, -y, z'
7 '-z, y, -x'
8 '-y, x, -z'
9 '-x, z, -y'
10 '-z, x, -y'
11 '-y, z, -x'
12 '-x, y, -z'
13 'z, -y, -x'
14 'y, -x, -z'
15 'x, -z, -y'
16 'z, -x, -y'
17 'y, -z, -x'
18 'x, -y, -z'
19 'z, y, x'
20 'y, x, z'
21 'x, z, y'
22 'z, x, y'
23 'y, z, x'
24 'x, y, z'
25 '-z+1/2, -y+1/2, x+1/2'
26 '-y+1/2, -x+1/2, z+1/2'
27 '-x+1/2, -z+1/2, y+1/2'
28 '-z+1/2, -x+1/2, y+1/2'
29 '-y+1/2, -z+1/2, x+1/2'
30 '-x+1/2, -y+1/2, z+1/2'
31 '-z+1/2, y+1/2, -x+1/2'
32 '-y+1/2, x+1/2, -z+1/2'
33 '-x+1/2, z+1/2, -y+1/2'
34 '-z+1/2, x+1/2, -y+1/2'
35 '-y+1/2, z+1/2, -x+1/2'
36 '-x+1/2, y+1/2, -z+1/2'
37 'z+1/2, -y+1/2, -x+1/2'
38 'y+1/2, -x+1/2, -z+1/2'
39 'x+1/2, -z+1/2, -y+1/2'
40 'z+1/2, -x+1/2, -y+1/2'
41 'y+1/2, -z+1/2, -x+1/2'
42 'x+1/2, -y+1/2, -z+1/2'
43 'z+1/2, y+1/2, x+1/2'
44 'y+1/2, x+1/2, z+1/2'
45 'x+1/2, z+1/2, y+1/2'
46 'z+1/2, x+1/2, y+1/2'
47 'y+1/2, z+1/2, x+1/2'
48 'x+1/2, y+1/2, z+1/2'
loop_
_atom_type_symbol
_atom_type_oxidation_number
In1+ 1.2
Na1+ 1
O2- -2
loop_
_atom_site_label
_atom_site_type_symbol
_atom_site_symmetry_multiplicity
_atom_site_Wyckoff_symbol
_atom_site_fract_x
_atom_site_fract_y
_atom_site_fract_z
_atom_site_B_iso_or_equiv
_atom_site_occupancy
_atom_site_attached_hydrogens
In1 In1+ 8 c 0.1431(1) 0.1431(1) 0.1431(1) . 1. 0
In2 In1+ 2 a 0 0 0 . 1. 0
Na1 Na1+ 24 g 0.4165(5) 0.1330(5) 0.1330(5) . 1. 0
Na2 Na1+ 24 g 0.3912(5) 0.3912(5) 0.1749(8) . 1. 0
O1 O2- 6 b 0.5 0.5 0 . 1. 0
O2 O2- 24 g 0.2566(9) 0.0506(9) 0.2566(9) . 1. 0
loop_
_atom_site_aniso_label
_atom_site_aniso_type_symbol
_atom_site_aniso_U_11
_atom_site_aniso_U_22
_atom_site_aniso_U_33
_atom_site_aniso_U_12
_atom_site_aniso_U_13
_atom_site_aniso_U_23
In1 In1+ 0.0079(3) 0.0079(3) 0.0079(3) 0.0039(1) 0.0039(1) 0.0079(3)
In2 In1+ 0.0121(6) 0.0121(6) 0.0121(6) 0 0 0
Na1 Na1+ 0.0089(19) 0.0089(19) 0.0423(49) -.0070(27) 0.0045(9) 0.0045(9)
Na2 Na1+ 0.0217(18) 0.0217(18) 0.0360(32) -.0012(25) 0.0109(9) 0.0109(9)
O1 O2- 0.0147(84) 0.0132(51) 0.0132(51) 0 0 0
O2 O2- 0.0102(31) 0.0102(31) 0.0464(73) 0.0084(44) 0.0051(16) 0.0051(16)
#End of TTdata_63570-ICSD