
#(C) 2019 by FIZ Karlsruhe - Leibniz Institute for Information Infrastructure.  All rights reserved.
data_63718-ICSD
_database_code_ICSD 63718
_audit_creation_date 1992-08-20
_audit_update_record 1999-01-19
_chemical_name_systematic 'Sodium lithium phyllo-disilicate dihydrate'
_chemical_formula_structural 'Na Li (Si2 O5) (H2 O)2'
_chemical_formula_sum 'H4 Li1 Na1 O7 Si2'
_chemical_name_mineral Silinaite
_exptl_crystal_density_diffrn 2.23
_publ_section_title 'The crystal structure of silinaite, Na Li Si2 O5 . 2H2O'
loop_
_citation_id
_citation_journal_full
_citation_year
_citation_journal_volume
_citation_page_first
_citation_page_last
_citation_journal_id_ASTM
primary 'Canadian Mineralogist' 1991 29 363 367 CAMIA6
loop_
_publ_author_name
'Grice, J.D.'
_cell_length_a 5.061(1)
_cell_length_b 8.334(2)
_cell_length_c 14.383(3)
_cell_angle_alpha 90.
_cell_angle_beta 96.6(2)
_cell_angle_gamma 90.
_cell_volume 602.63
_cell_formula_units_Z 4
_symmetry_space_group_name_H-M 'A 1 2/n 1'
_symmetry_Int_Tables_number 15
_refine_ls_R_factor_all 0.03
loop_
_symmetry_equiv_pos_site_id
_symmetry_equiv_pos_as_xyz
1 'x+1/2, -y, z+1/2'
2 '-x, -y, -z'
3 '-x+1/2, y, -z+1/2'
4 'x, y, z'
5 'x+1/2, -y+1/2, z'
6 '-x, -y+1/2, -z+1/2'
7 '-x+1/2, y+1/2, -z'
8 'x, y+1/2, z+1/2'
loop_
_atom_type_symbol
_atom_type_oxidation_number
Na1+ 1
Li1+ 1
Si4+ 4
O2- -2
H1+ 1
loop_
_atom_site_label
_atom_site_type_symbol
_atom_site_symmetry_multiplicity
_atom_site_Wyckoff_symbol
_atom_site_fract_x
_atom_site_fract_y
_atom_site_fract_z
_atom_site_B_iso_or_equiv
_atom_site_occupancy
_atom_site_attached_hydrogens
Na1 Na1+ 4 e 0.25 0.6035(2) 0.25 . 1. 0
Li1 Li1+ 4 e 0.25 0.2395(7) 0.25 . 1. 0
Si1 Si4+ 8 f 0.0525(1) 0.1526(1) 0.4366(1) . 1. 0
O1 O2- 8 f 0.0096(3) 0.1211(2) 0.3269(1) . 1. 0
O2 O2- 8 f 0.3610(3) 0.2053(2) 0.4703(1) . 1. 0
O3 O2- 4 b 0 0 0.5 . 1. 0
O4 O2- 8 f 0.0933(3) 0.8583(2) 0.1594(1) . 1. 0
H1 H1+ 8 f 0.041(7) 0.855(4) 0.109(2) 0.052(11) 1. 0
H2 H1+ 8 f 0.219(6) 0.941(4) 0.164(2) 0.036(8) 1. 0
loop_
_atom_site_aniso_label
_atom_site_aniso_type_symbol
_atom_site_aniso_U_11
_atom_site_aniso_U_22
_atom_site_aniso_U_33
_atom_site_aniso_U_12
_atom_site_aniso_U_13
_atom_site_aniso_U_23
Na1 Na1+ 0.0201(7) 0.0200(6) 0.0247(7) 0 0.0073(5) 0
Li1 Li1+ 0.0119(22) 0.0168(24) 0.0168(23) 0 -.0004(20) 0
Si1 Si4+ 0.0071(2) 0.0074(2) 0.0078(2) 0.0008(2) 0.0005(2) -.0005(2)
O1 O2- 0.0119(6) 0.0135(7) 0.0088(6) -.0011(5) 0.0008(5) -.0005(5)
O2 O2- 0.0073(6) 0.0122(6) 0.0115(6) 0.0020(5) 0.0000(5) -.0020(5)
O3 O2- 0.0188(11) 0.0131(10) 0.0165(10) 0.0076(8) 0.0025(8) -.0030(8)
O4 O2- 0.0221(8) 0.0270(9) 0.0147(7) -.0002(7) 0.0024(6) -.0036(8)
#End of TTdata_63718-ICSD