
#(C) 2019 by FIZ Karlsruhe - Leibniz Institute for Information Infrastructure, and the U.S. Secretary of
#Commerce on behalf of the United States.  All rights reserved.
data_644976-ICSD
_database_code_ICSD 644976
_audit_creation_date 2008-07-07
_audit_update_record 2017-08-01
_chemical_name_systematic 'Sodium tin sulfide (35/2/6)'
_chemical_formula_structural 'Na2 Sn S3'
_chemical_formula_sum 'Na2 S3 Sn1'
_exptl_crystal_density_diffrn 3.43
_publ_section_title

;
The OD structure of Na2 Sn S3. Determination and refinement of an MDO
structure
;
loop_
_citation_id
_citation_journal_full
_citation_year
_citation_journal_volume
_citation_page_first
_citation_page_last
_citation_journal_id_ASTM
primary

;
Acta Crystallographica, Section B: Structural Crystallography and Crystal
Chemistry
; 1974 30 2620 2628 ACBCAR
loop_
_publ_author_name
'Mark, Wanda'
'Lindqvist, Oliver'
'Jumas, Jean-Claude'
'Philippot, Etienne'
_cell_length_a 6.633(3)
_cell_length_b 6.633(3)
_cell_length_c 39.76(2)
_cell_angle_alpha 90.
_cell_angle_beta 90.
_cell_angle_gamma 120.
_cell_volume 1514.95
_cell_formula_units_Z 12
_symmetry_space_group_name_H-M 'R -3 c H'
_symmetry_Int_Tables_number 167
loop_
_symmetry_equiv_pos_site_id
_symmetry_equiv_pos_as_xyz
1 'x-y, -y, -z+1/2'
2 '-x, -x+y, -z+1/2'
3 'y, x, -z+1/2'
4 'x-y, x, -z'
5 'y, -x+y, -z'
6 '-x, -y, -z'
7 '-x+y, y, z+1/2'
8 'x, x-y, z+1/2'
9 '-y, -x, z+1/2'
10 '-x+y, -x, z'
11 '-y, x-y, z'
12 'x, y, z'
13 'x-y+2/3, -y+1/3, -z+5/6'
14 '-x+2/3, -x+y+1/3, -z+5/6'
15 'y+2/3, x+1/3, -z+5/6'
16 'x-y+2/3, x+1/3, -z+1/3'
17 'y+2/3, -x+y+1/3, -z+1/3'
18 '-x+2/3, -y+1/3, -z+1/3'
19 '-x+y+2/3, y+1/3, z+5/6'
20 'x+2/3, x-y+1/3, z+5/6'
21 '-y+2/3, -x+1/3, z+5/6'
22 '-x+y+2/3, -x+1/3, z+1/3'
23 '-y+2/3, x-y+1/3, z+1/3'
24 'x+2/3, y+1/3, z+1/3'
25 'x-y+1/3, -y+2/3, -z+1/6'
26 '-x+1/3, -x+y+2/3, -z+1/6'
27 'y+1/3, x+2/3, -z+1/6'
28 'x-y+1/3, x+2/3, -z+2/3'
29 'y+1/3, -x+y+2/3, -z+2/3'
30 '-x+1/3, -y+2/3, -z+2/3'
31 '-x+y+1/3, y+2/3, z+1/6'
32 'x+1/3, x-y+2/3, z+1/6'
33 '-y+1/3, -x+2/3, z+1/6'
34 '-x+y+1/3, -x+2/3, z+2/3'
35 '-y+1/3, x-y+2/3, z+2/3'
36 'x+1/3, y+2/3, z+2/3'
loop_
_atom_type_symbol
_atom_type_oxidation_number
Na0+ 0
S0+ 0
Sn0+ 0
loop_
_atom_site_label
_atom_site_type_symbol
_atom_site_symmetry_multiplicity
_atom_site_Wyckoff_symbol
_atom_site_fract_x
_atom_site_fract_y
_atom_site_fract_z
_atom_site_B_iso_or_equiv
_atom_site_occupancy
_atom_site_attached_hydrogens
Na1 Na0+ 6 b 0 0 0 2.5(6) 1. 0
Na2 Na0+ 18 e 0.6667 0 0.08333 1.36(11) 0.1667 0
Na3 Na0+ 36 f 0.32523 0.31713 0.08333 1.36(11) 0.1667 0
Na4 Na0+ 12 c 0.6667 0.3333 0.25 1.36(11) 0.1875 0
Na5 Na0+ 36 f 0.0081 -0.0081 0.25 1.36(11) 0.1875 0
S1 S0+ 36 f 0.3641(5) 0 0.03662(6) 0.91(4) 1. 0
Sn1 Sn0+ 12 c 0.6667 0.3333 0 0.64(3) 1. 0
#End of TTdata_644976-ICSD