
#(C) 2019 by FIZ Karlsruhe - Leibniz Institute for Information Infrastructure.  All rights reserved.
data_645-ICSD
_database_code_ICSD 645
_audit_creation_date 1980-01-01
_audit_update_record 2012-02-01
_chemical_name_systematic 'Trisodium trithioarsenate(III)'
_chemical_formula_structural 'Na3 (As S3)'
_chemical_formula_sum 'As1 Na3 S3'
_chemical_name_structure_type Na3AsS3
_exptl_crystal_density_diffrn 2.54
_publ_section_title
'Structure cristalline de l'orthotrithioarsenite trisodique, Na3 As S3'
loop_
_citation_id
_citation_journal_full
_citation_year
_citation_journal_volume
_citation_page_first
_citation_page_last
_citation_journal_id_ASTM
primary

;
Acta Crystallographica, Section B: Structural Crystallography and Crystal
Chemistry
; 1976 32 3175 3177 ACBCAR
loop_
_publ_author_name
'Palazzi, M.'
_cell_length_a 8.566(2)
_cell_length_b 8.566(2)
_cell_length_c 8.566(2)
_cell_angle_alpha 90.
_cell_angle_beta 90.
_cell_angle_gamma 90.
_cell_volume 628.54
_cell_formula_units_Z 4
_symmetry_space_group_name_H-M 'P 21 3'
_symmetry_Int_Tables_number 198
_refine_ls_R_factor_all 0.032
loop_
_symmetry_equiv_pos_site_id
_symmetry_equiv_pos_as_xyz
1 '-z+1/2, -x, y+1/2'
2 '-y+1/2, -z, x+1/2'
3 '-x+1/2, -y, z+1/2'
4 '-z, x+1/2, -y+1/2'
5 '-y, z+1/2, -x+1/2'
6 '-x, y+1/2, -z+1/2'
7 'z+1/2, -x+1/2, -y'
8 'y+1/2, -z+1/2, -x'
9 'x+1/2, -y+1/2, -z'
10 'z, x, y'
11 'y, z, x'
12 'x, y, z'
loop_
_atom_type_symbol
_atom_type_oxidation_number
S2- -2
As3+ 3
Na1+ 1
loop_
_atom_site_label
_atom_site_type_symbol
_atom_site_symmetry_multiplicity
_atom_site_Wyckoff_symbol
_atom_site_fract_x
_atom_site_fract_y
_atom_site_fract_z
_atom_site_B_iso_or_equiv
_atom_site_occupancy
_atom_site_attached_hydrogens
S1 S2- 12 b 0.1458(2) 0.4720(2) 0.2486(2) . 1. 0
As1 As3+ 4 a 0.2215(1) 0.2215(1) 0.2215(1) . 1. 0
Na1 Na1+ 4 a 0.4392(3) 0.4392(3) 0.4392(3) . 1. 0
Na2 Na1+ 4 a 0.9329(4) 0.9329(4) 0.9329(4) . 1. 0
Na3 Na1+ 4 a 0.6721(4) 0.6721(4) 0.6721(4) . 1. 0
loop_
_atom_site_aniso_label
_atom_site_aniso_type_symbol
_atom_site_aniso_beta_11
_atom_site_aniso_beta_22
_atom_site_aniso_beta_33
_atom_site_aniso_beta_12
_atom_site_aniso_beta_13
_atom_site_aniso_beta_23
S1 S2- 0.0065(2) 0.0059(2) 0.0039(2) 0.0016(2) 0.0013(2) 0.0006(2)
As1 As3+ 0.0048(1) 0.0048(1) 0.0048(1) -.0003(1) -.0003(1) -.0003(1)
Na1 Na1+ 0.0064(2) 0.0064(2) 0.0064(2) -.0002(2) -.0002(2) -.0002(2)
Na2 Na1+ 0.0075(3) 0.0075(3) 0.0075(3) 0.0002(3) 0.0002(3) 0.0002(3)
Na3 Na1+ 0.0096(3) 0.0096(3) 0.0096(3) -.0006(4) -.0006(4) -.0006(4)
#End of TTdata_645-ICSD