
#(C) 2019 by FIZ Karlsruhe - Leibniz Institute for Information Infrastructure.  All rights reserved.
data_646-ICSD
_database_code_ICSD 646
_audit_creation_date 1980-01-01
_audit_update_record 2012-08-01
_chemical_name_systematic 'Dicesium sodium tris(phyllo-tetrafluoroaluminate)'
_chemical_formula_structural 'Cs2 Na (Al F4)3'
_chemical_formula_sum 'Al3 Cs2 F12 Na1'
_chemical_name_structure_type Cs2NaAl3F12
_exptl_crystal_density_diffrn 3.82
_publ_section_title 'Structure cristalline de Cs2 Na Al3 F12'
loop_
_citation_id
_citation_journal_full
_citation_year
_citation_journal_volume
_citation_page_first
_citation_page_last
_citation_journal_id_ASTM
primary

;
Acta Crystallographica, Section B: Structural Crystallography and Crystal
Chemistry
; 1976 32 3190 3193 ACBCAR
loop_
_publ_author_name
'Courbion, G.'
'Jacoboni, C.'
'de Pape, R.'
_cell_length_a 7.310(3)
_cell_length_b 7.310(3)
_cell_length_c 7.310(3)
_cell_angle_alpha 57.45(1)
_cell_angle_beta 57.45(1)
_cell_angle_gamma 57.45(1)
_cell_volume 260.01
_cell_formula_units_Z 1
_symmetry_space_group_name_H-M 'R -3 m R'
_symmetry_Int_Tables_number 166
_refine_ls_R_factor_all 0.028
loop_
_symmetry_equiv_pos_site_id
_symmetry_equiv_pos_as_xyz
1 '-z, -y, -x'
2 '-z, -x, -y'
3 '-x, -z, -y'
4 '-y, -z, -x'
5 '-y, -x, -z'
6 '-x, -y, -z'
7 'z, y, x'
8 'z, x, y'
9 'x, z, y'
10 'y, z, x'
11 'y, x, z'
12 'x, y, z'
loop_
_atom_type_symbol
_atom_type_oxidation_number
Cs1+ 1
Na1+ 1
Al3+ 3
F1- -1
loop_
_atom_site_label
_atom_site_type_symbol
_atom_site_symmetry_multiplicity
_atom_site_Wyckoff_symbol
_atom_site_fract_x
_atom_site_fract_y
_atom_site_fract_z
_atom_site_B_iso_or_equiv
_atom_site_occupancy
_atom_site_attached_hydrogens
Cs1 Cs1+ 2 c 0.37877(6) 0.37877(6) 0.37877(6) . 1. 0
Na1 Na1+ 1 a 0 0 0 . 1. 0
Al1 Al3+ 3 d 0.5 0 0 . 1. 0
F1 F1- 6 h 0.2968(4) 0.2968(4) -.0768(4) . 1. 0
F2 F1- 6 h -.0847(4) -.0847(4) 0.3828(4) . 1. 0
loop_
_atom_site_aniso_label
_atom_site_aniso_type_symbol
_atom_site_aniso_beta_11
_atom_site_aniso_beta_22
_atom_site_aniso_beta_33
_atom_site_aniso_beta_12
_atom_site_aniso_beta_13
_atom_site_aniso_beta_23
Cs1 Cs1+ 0.0123(1) 0.0123(1) 0.0123(1) -.0049(1) -.0049(1) -.0049(1)
Na1 Na1+ 0.0071(5) 0.0071(5) 0.0071(5) -.0025(3) -.0025(3) -.0025(3)
Al1 Al3+ 0.0016(3) 0.0026(3) 0.0026(3) -.0003(1) -.0003(1) -.0009(2)
F1 F1- 0.0038(4) 0.0038(4) 0.0073(6) 0.0013(4) -.0007(2) -.0007(2)
F2 F1- 0.0146(5) 0.0146(5) 0.0065(6) -.0101(6) -.0026(3) -.0026(3)
#End of TTdata_646-ICSD