
#(C) 2019 by FIZ Karlsruhe - Leibniz Institute for Information Infrastructure.  All rights reserved.
data_64664-ICSD
_database_code_ICSD 64664
_audit_creation_date 1989-12-04
_chemical_name_systematic 'Disodium praseodymium(IV) oxide'
_chemical_formula_structural 'Na2 Pr O3'
_chemical_formula_sum 'Na2 O3 Pr1'
_exptl_crystal_density_diffrn 4.58
_publ_section_title 'Ueber Na2 Pr O3 und Na2 Tb O3'
loop_
_citation_id
_citation_journal_full
_citation_year
_citation_journal_volume
_citation_page_first
_citation_page_last
_citation_journal_id_ASTM
primary 'Zeitschrift fuer Anorganische und Allgemeine Chemie (1950) (DE)' 1988
556 97 108 ZAACAB
loop_
_publ_author_name
'Wolf, R.'
'Hoppe, R.'
_cell_length_a 6.7878(5)
_cell_length_b 9.7747(7)
_cell_length_c 10.8058(9)
_cell_angle_alpha 90.
_cell_angle_beta 108.25(1)
_cell_angle_gamma 90.
_cell_volume 680.89
_cell_formula_units_Z 8
_symmetry_space_group_name_H-M 'C 1 2/c 1'
_symmetry_Int_Tables_number 15
_refine_ls_R_factor_all 0.0888
loop_
_symmetry_equiv_pos_site_id
_symmetry_equiv_pos_as_xyz
1 'x, -y, z+1/2'
2 '-x, -y, -z'
3 '-x, y, -z+1/2'
4 'x, y, z'
5 'x+1/2, -y+1/2, z+1/2'
6 '-x+1/2, -y+1/2, -z'
7 '-x+1/2, y+1/2, -z+1/2'
8 'x+1/2, y+1/2, z'
loop_
_atom_type_symbol
_atom_type_oxidation_number
Pr4+ 4
Na1+ 1
O2- -2
loop_
_atom_site_label
_atom_site_type_symbol
_atom_site_symmetry_multiplicity
_atom_site_Wyckoff_symbol
_atom_site_fract_x
_atom_site_fract_y
_atom_site_fract_z
_atom_site_B_iso_or_equiv
_atom_site_occupancy
_atom_site_attached_hydrogens
Pr1 Pr4+ 8 f 0.4182(2) 0.1269(1) 0.5824(1) . 1. 0
Na1 Na1+ 8 f 0.5912(12) 0.3610(8) 0.4084(8) . 1. 0
Na2 Na1+ 8 f 0.7318(11) 0.3838(14) 0.7418(8) . 1. 0
O1 O2- 8 f 0.6052(18) 0.3517(11) 0.9288(13) . 1. 0
O2 O2- 8 f 0.7135(15) 0.1242(22) 0.7493(12) . 1. 0
O3 O2- 8 f 0.5763(19) 0.1043(11) 0.4327(11) . 1. 0
loop_
_atom_site_aniso_label
_atom_site_aniso_type_symbol
_atom_site_aniso_U_11
_atom_site_aniso_U_22
_atom_site_aniso_U_33
_atom_site_aniso_U_12
_atom_site_aniso_U_13
_atom_site_aniso_U_23
Pr1 Pr4+ 0.0087(3) 0.0087(3) 0.0093(3) -.0009(6) 0.0041(2) -.0011(6)
Na1 Na1+ 0.0247(24) 0.0170(34) 0.0272(27) 0.0088(29) 0.0202(20) -.0044(29)
Na2 Na1+ 0.0142(25) 0.019(3) 0.0329(28) -.0028(32) 0.0016(21) -.0072(33)
O1 O2- 0.005343 0.0237(65) 0.0152(48) 0.0029(43) 0.0019(37) 0.0026(47)
O2 O2- 0.0155(51) 0.0201(46) 0.0117(39) -.0008(64) 0.0005(39) -.0049(45)
O3 O2- 0.0148(42) 0.0160(58) 0.0099(48) -.0025(45) 0.0103(36) -.0004(11)
#End of TTdata_64664-ICSD