
#(C) 2019 by FIZ Karlsruhe - Leibniz Institute for Information Infrastructure.  All rights reserved.
data_64678-ICSD
_database_code_ICSD 64678
_audit_creation_date 1989-12-04
_chemical_name_systematic 'Potassium sodium cobaltate(II)'
_chemical_formula_structural 'K2 Na4 (Co2 O5)'
_chemical_formula_sum 'Co2 K2 Na4 O5'
_chemical_name_structure_type Rb2K4Co2O5
_exptl_crystal_density_diffrn 2.95
_publ_section_title

;
Die ersten Oxocobaltate(II) mit zweikernigem Anion: Rb2 Na4 (Co2 O5) und K2
Na4 (Co2 O5)
;
loop_
_citation_id
_citation_journal_full
_citation_year
_citation_journal_volume
_citation_page_first
_citation_page_last
_citation_journal_id_ASTM
primary 'Zeitschrift fuer Anorganische und Allgemeine Chemie (1950) (DE)' 1988
557 171 181 ZAACAB
loop_
_publ_author_name
'Hoppe, R.'
'Birx, J.'
_cell_length_a 6.344(1)
_cell_length_b 6.344(1)
_cell_length_c 10.303(2)
_cell_angle_alpha 90.
_cell_angle_beta 90.
_cell_angle_gamma 90.
_cell_volume 414.66
_cell_formula_units_Z 2
_symmetry_space_group_name_H-M 'P 42/m n m'
_symmetry_Int_Tables_number 136
_refine_ls_R_factor_all 0.0434
loop_
_symmetry_equiv_pos_site_id
_symmetry_equiv_pos_as_xyz
1 '-y+1/2, x+1/2, -z+1/2'
2 'y+1/2, -x+1/2, -z+1/2'
3 'y, x, -z'
4 '-y, -x, -z'
5 'y+1/2, -x+1/2, z+1/2'
6 '-y+1/2, x+1/2, z+1/2'
7 '-y, -x, z'
8 'y, x, z'
9 'x+1/2, -y+1/2, -z+1/2'
10 '-x+1/2, y+1/2, -z+1/2'
11 'x, y, -z'
12 '-x, -y, -z'
13 '-x+1/2, y+1/2, z+1/2'
14 'x+1/2, -y+1/2, z+1/2'
15 '-x, -y, z'
16 'x, y, z'
loop_
_atom_type_symbol
_atom_type_oxidation_number
K1+ 1
Na1+ 1
Co2+ 2
O2- -2
loop_
_atom_site_label
_atom_site_type_symbol
_atom_site_symmetry_multiplicity
_atom_site_Wyckoff_symbol
_atom_site_fract_x
_atom_site_fract_y
_atom_site_fract_z
_atom_site_B_iso_or_equiv
_atom_site_occupancy
_atom_site_attached_hydrogens
K1 K1+ 4 f 0.6955(2) 0.6955(2) 0 . 1. 0
Na1 Na1+ 4 e 0 0 0.7776(2) . 1. 0
Na2 Na1+ 4 d 0 0.5 0.25 . 1. 0
Co1 Co2+ 4 g 0.7886(1) 0.2114(1) 0 . 1. 0
O1 O2- 8 j 0.7155(4) 0.2845(4) 0.1610(3) . 1. 0
O2 O2- 2 a 0 0 0 . 1. 0
loop_
_atom_site_aniso_label
_atom_site_aniso_type_symbol
_atom_site_aniso_U_11
_atom_site_aniso_U_22
_atom_site_aniso_U_33
_atom_site_aniso_U_12
_atom_site_aniso_U_13
_atom_site_aniso_U_23
K1 K1+ 0.0180(5) 0.0180(5) 0.1147(20) -.0005(6) 0 0
Na1 Na1+ 0.0253(9) 0.0253(9) 0.0108(11) -.0084(12) 0 0
Na2 Na1+ 0.0137(7) 0.0137(7) 0.0154(11) 0 0 0
Co1 Co2+ 0.0111(3) 0.0111(3) 0.0153(4) 0.0023(3) 0 0
O1 O2- 0.0321(13) 0.0321(23) 0.0282(21) 0.0051(20) 0.0104(69) 0.0104(69)
O2 O2- 0.0222(20) 0.0222(20) 0.0131(27) 0.0128(28) 0 0
#End of TTdata_64678-ICSD