
#(C) 2019 by FIZ Karlsruhe - Leibniz Institute for Information Infrastructure.  All rights reserved.
data_64872-ICSD
_database_code_ICSD 64872
_audit_creation_date 1997-11-10
_chemical_name_systematic 'Sodium zirconium phosphorus silicate *'
_chemical_formula_structural 'Na3.33 Zr1.77 Si1.4 P1.6 O12'
_chemical_formula_sum 'Na3.33 O12 P1.6 Si1.4 Zr1.77'
_chemical_name_structure_type 'Nasicon high'
_chemical_name_mineral 'Nasicon high'
_exptl_crystal_density_diffrn 2.99
_cell_measurement_temperature 641.
_publ_section_title

;
Nasicon solid electrolytes. Part I: The Na+-diffusion path and its relation to
the structure
;
loop_
_citation_id
_citation_journal_full
_citation_year
_citation_journal_volume
_citation_page_first
_citation_page_last
_citation_journal_id_ASTM
primary 'Materials Research Bulletin' 1985 20 1461 1471 MRBUAC
loop_
_publ_author_name
'Kohler, H.'
'Schulz, H.'
_cell_length_a 9.24(1)
_cell_length_b 9.24(1)
_cell_length_c 23.39(2)
_cell_angle_alpha 90.
_cell_angle_beta 90.
_cell_angle_gamma 120.
_cell_volume 1729.44
_cell_formula_units_Z 6
_symmetry_space_group_name_H-M 'R -3 c H'
_symmetry_Int_Tables_number 167
_refine_ls_R_factor_all 0.028
loop_
_symmetry_equiv_pos_site_id
_symmetry_equiv_pos_as_xyz
1 'x-y, -y, -z+1/2'
2 '-x, -x+y, -z+1/2'
3 'y, x, -z+1/2'
4 'x-y, x, -z'
5 'y, -x+y, -z'
6 '-x, -y, -z'
7 '-x+y, y, z+1/2'
8 'x, x-y, z+1/2'
9 '-y, -x, z+1/2'
10 '-x+y, -x, z'
11 '-y, x-y, z'
12 'x, y, z'
13 'x-y+2/3, -y+1/3, -z+5/6'
14 '-x+2/3, -x+y+1/3, -z+5/6'
15 'y+2/3, x+1/3, -z+5/6'
16 'x-y+2/3, x+1/3, -z+1/3'
17 'y+2/3, -x+y+1/3, -z+1/3'
18 '-x+2/3, -y+1/3, -z+1/3'
19 '-x+y+2/3, y+1/3, z+5/6'
20 'x+2/3, x-y+1/3, z+5/6'
21 '-y+2/3, -x+1/3, z+5/6'
22 '-x+y+2/3, -x+1/3, z+1/3'
23 '-y+2/3, x-y+1/3, z+1/3'
24 'x+2/3, y+1/3, z+1/3'
25 'x-y+1/3, -y+2/3, -z+1/6'
26 '-x+1/3, -x+y+2/3, -z+1/6'
27 'y+1/3, x+2/3, -z+1/6'
28 'x-y+1/3, x+2/3, -z+2/3'
29 'y+1/3, -x+y+2/3, -z+2/3'
30 '-x+1/3, -y+2/3, -z+2/3'
31 '-x+y+1/3, y+2/3, z+1/6'
32 'x+1/3, x-y+2/3, z+1/6'
33 '-y+1/3, -x+2/3, z+1/6'
34 '-x+y+1/3, -x+2/3, z+2/3'
35 '-y+1/3, x-y+2/3, z+2/3'
36 'x+1/3, y+2/3, z+2/3'
loop_
_atom_type_symbol
_atom_type_oxidation_number
Na1+ 1
Zr4+ 4
Si4+ 4
P5+ 5
O2- -2
loop_
_atom_site_label
_atom_site_type_symbol
_atom_site_symmetry_multiplicity
_atom_site_Wyckoff_symbol
_atom_site_fract_x
_atom_site_fract_y
_atom_site_fract_z
_atom_site_B_iso_or_equiv
_atom_site_occupancy
_atom_site_attached_hydrogens
Na1 Na1+ 12 c 0 0 0.01 23. 0.350(4) 0
Na2 Na1+ 18 e -.3728(6) 0 0.25 23.5 0.833(2) 0
Na3 Na1+ 12 c 0 0 0.1848(5) 0.4 0.07(1) 0
Zr1 Zr4+ 12 c 0 0 0.14801(2) 1.1 0.885 0
Si1 Si4+ 18 e 0.2906(1) 0 0.25 1.2 0.467 0
P1 P5+ 18 e 0.2906(1) 0 0.25 1.2 0.533 0
O1 O2- 36 f 0.1944(3) 0.1732(3) 0.0911(1) 2.5 1. 0
O2 O2- 36 f 0.1763(3) -.0273(4) 0.1969(1) 4.1 1. 0
#End of TTdata_64872-ICSD