
#(C) 2019 by FIZ Karlsruhe - Leibniz Institute for Information Infrastructure.  All rights reserved.
data_64958-ICSD
_database_code_ICSD 64958
_audit_creation_date 1998-06-26
_audit_update_record 2007-08-01
_chemical_name_systematic
'Potassium sodium tecto-alumotrisilicate (0.86/0.14/1)'
_chemical_formula_structural '(K0.86 Na0.14) (Al Si3 O8)'
_chemical_formula_sum 'Al1 K0.86 Na0.14 O8 Si3'
_chemical_name_structure_type Feldspar#-(MO,C12/m1)-KAlSi3O8
_chemical_name_mineral 'Sanidine high (annealed at 1323 K for 2)'
_exptl_crystal_density_diffrn 2.55
_publ_section_title
'Silizium/Aluminium-Ordnung und Kristallperfektion von Sanidinen'
loop_
_citation_id
_citation_journal_full
_citation_year
_citation_journal_volume
_citation_page_first
_citation_page_last
_citation_journal_id_ASTM
primary 'Kernforschungszentrum Karlsruhe, [Bericht] KfK' 1985 3984 1 50 KKBRAY
loop_
_publ_author_name
'Gering, E.'
_cell_length_a 8.546(1)
_cell_length_b 13.033(2)
_cell_length_c 7.176(2)
_cell_angle_alpha 90.
_cell_angle_beta 115.97(2)
_cell_angle_gamma 90.
_cell_volume 718.56
_cell_formula_units_Z 4
_symmetry_space_group_name_H-M 'C 1 2/m 1'
_symmetry_Int_Tables_number 12
_refine_ls_R_factor_all 0.025
loop_
_symmetry_equiv_pos_site_id
_symmetry_equiv_pos_as_xyz
1 '-x, y, -z'
2 '-x, -y, -z'
3 'x, -y, z'
4 'x, y, z'
5 '-x+1/2, y+1/2, -z'
6 '-x+1/2, -y+1/2, -z'
7 'x+1/2, -y+1/2, z'
8 'x+1/2, y+1/2, z'
loop_
_atom_type_symbol
_atom_type_oxidation_number
K1+ 1
Na1+ 1
Al3+ 3
Si4+ 4
Al3+ 3
Si4+ 4
O2- -2
loop_
_atom_site_label
_atom_site_type_symbol
_atom_site_symmetry_multiplicity
_atom_site_Wyckoff_symbol
_atom_site_fract_x
_atom_site_fract_y
_atom_site_fract_z
_atom_site_B_iso_or_equiv
_atom_site_occupancy
_atom_site_attached_hydrogens
K1 K1+ 4 i 0.28523(7) 0 0.13771(9) . 0.86 0
Na1 Na1+ 4 i 0.28523(7) 0 0.13771(10) . 0.14 0
Al1 Al3+ 8 j 0.00940(3) 0.18452(2) 0.22363(3) . 0.264(15) 0
Si1 Si4+ 8 j 0.00940(3) 0.18452(2) 0.22363(3) . 0.736 0
Al2 Al3+ 8 j 0.20787(3) 0.38219(2) 0.34420(3) . 0.236 0
Si2 Si4+ 8 j 0.20787(3) 0.38219(2) 0.34420(3) . 0.764 0
O1 O2- 4 g 0 0.14649(7) 0 . 1. 0
O2 O2- 4 i 0.63432(12) 0 0.28528(14) . 1. 0
O3 O2- 8 j 0.82851(9) 0.14562(6) 0.22645(11) . 1. 0
O4 O2- 8 j 0.03308(9) 0.30944(5) 0.25667(10) . 1. 0
O5 O2- 8 j 0.18058(9) 0.12670(5) 0.40364(9) . 1. 0
loop_
_atom_site_aniso_label
_atom_site_aniso_type_symbol
_atom_site_aniso_U_11
_atom_site_aniso_U_22
_atom_site_aniso_U_33
_atom_site_aniso_U_12
_atom_site_aniso_U_13
_atom_site_aniso_U_23
K1 K1+ 0.0165(2) 0.0499(7) 0.0307(4) 0 0.0068(1) 0
Na1 Na1+ 0.0165(2) 0.0499(7) 0.0307(4) 0 0.0068(1) 0
Al1 Al3+ 0.0116(1) 0.0127(1) 0.0089(1) -0.0022(1) 0.0048(1) -0.0008(1)
Si1 Si4+ 0.0116(1) 0.0127(1) 0.0089(1) -0.0022(1) 0.0048(1) -0.0008(1)
Al2 Al3+ 0.0113(1) 0.0102(1) 0.0115(1) 0.0006(1) 0.0045(1) 0.0001(1)
Si2 Si4+ 0.0113(1) 0.0102(1) 0.0115(1) 0.0006(1) 0.0045(1) 0.0001(1)
O1 O2- 0.0275(4) 0.0211(4) 0.0156(3) 0 0.0112(3) 0
O2 O2- 0.0198(4) 0.0144(3) 0.0246(4) 0 0.0041(3) 0
O3 O2- 0.0204(3) 0.0327(3) 0.0252(3) -0.0043(3) 0.0134(3) 0.0005(3)
O4 O2- 0.0179(3) 0.0172(3) 0.0221(3) -0.0017(2) 0.0070(2) -0.0017(2)
O5 O2- 0.0205(3) 0.0219(3) 0.0147(2) 0.0022(2) 0.0040(2) 0.0014(2)
#End of TTdata_64958-ICSD