
#(C) 2019 by FIZ Karlsruhe - Leibniz Institute for Information Infrastructure.  All rights reserved.
data_64957-ICSD
_database_code_ICSD 64957
_audit_creation_date 1998-06-26
_audit_update_record 2008-02-01
_chemical_name_systematic
'Potassium sodium tecto-alumotrisilicate (0.86/0.14/1)'
_chemical_formula_structural '(K0.86 Na0.14) (Al Si3 O8)'
_chemical_formula_sum 'Al1 K0.86 Na0.14 O8 Si3'
_chemical_name_structure_type Feldspar#-(MO,C12/m1)-KAlSi3O8
_chemical_name_mineral 'Sanidine low'
_exptl_crystal_density_diffrn 2.55
_publ_section_title
'Silizium/Aluminium-Ordnung und Kristallperfektion von Sanidinen'
loop_
_citation_id
_citation_journal_full
_citation_year
_citation_journal_volume
_citation_page_first
_citation_page_last
_citation_journal_id_ASTM
primary 'Kernforschungszentrum Karlsruhe, [Bericht] KfK' 1985 1985 1 109 KKBRAY
loop_
_publ_author_name
'Gering, E.'
_cell_length_a 8.543(1)
_cell_length_b 13.019(1)
_cell_length_c 7.183(1)
_cell_angle_alpha 90.
_cell_angle_beta 115.99(1)
_cell_angle_gamma 90.
_cell_volume 718.11
_cell_formula_units_Z 4
_symmetry_space_group_name_H-M 'C 1 2/m 1'
_symmetry_Int_Tables_number 12
_refine_ls_R_factor_all 0.027
loop_
_symmetry_equiv_pos_site_id
_symmetry_equiv_pos_as_xyz
1 '-x, y, -z'
2 '-x, -y, -z'
3 'x, -y, z'
4 'x, y, z'
5 '-x+1/2, y+1/2, -z'
6 '-x+1/2, -y+1/2, -z'
7 'x+1/2, -y+1/2, z'
8 'x+1/2, y+1/2, z'
loop_
_atom_type_symbol
_atom_type_oxidation_number
K1+ 1
Na1+ 1
Al3+ 3
Si4+ 4
Al3+ 3
Si4+ 4
O2- -2
loop_
_atom_site_label
_atom_site_type_symbol
_atom_site_symmetry_multiplicity
_atom_site_Wyckoff_symbol
_atom_site_fract_x
_atom_site_fract_y
_atom_site_fract_z
_atom_site_B_iso_or_equiv
_atom_site_occupancy
_atom_site_attached_hydrogens
K1 K1+ 4 i 0.28464(7) 0 0.13781(10) . 0.86 0
Na1 Na1+ 4 i 0.28464(7) 0 0.13781(10) . 0.14 0
Al1 Al3+ 8 j 0.00936(3) 0.18440(2) 0.22374(4) . 0.312(15) 0
Si1 Si4+ 8 j 0.00936(3) 0.18440(2) 0.22374(4) . 0.685 0
Al2 Al3+ 8 j 0.20775(3) 0.38229(2) 0.34429(4) . 0.188 0
Si2 Si4+ 8 j 0.20775(3) 0.38229(2) 0.34429(4) . 0.812 0
O1 O2- 4 g 0 0.14609(7) 0 . 1. 0
O2 O2- 4 i 0.63403(12) 0 0.28556(15) . 1. 0
O3 O2- 8 j 0.82783(9) 0.14540(6) 0.22696(11) . 1. 0
O4 O2- 8 j 0.03336(8) 0.30986(5) 0.25728(10) . 1. 0
O5 O2- 8 j 0.18119(8) 0.12647(5) 0.40449(10) . 1. 0
loop_
_atom_site_aniso_label
_atom_site_aniso_type_symbol
_atom_site_aniso_U_11
_atom_site_aniso_U_22
_atom_site_aniso_U_33
_atom_site_aniso_U_12
_atom_site_aniso_U_13
_atom_site_aniso_U_23
K1 K1+ 0.0174(2) 0.0458(7) 0.0302(4) 0 0.0070(1) 0
Na1 Na1+ 0.0174(2) 0.0458(7) 0.0302(4) 0 0.0070(1) 0
Al1 Al3+ 0.0125(1) 0.0128(1) 0.0098(1) -0.0022(1) 0.0052(1) -0.0009(1)
Si1 Si4+ 0.0125(1) 0.0128(1) 0.0098(1) -0.0022(1) 0.0052(1) -0.0009(1)
Al2 Al3+ 0.0119(1) 0.0100(1) 0.0120(1) 0.0004(1) 0.0047(1) 0.0000(1)
Si2 Si4+ 0.0119(1) 0.0100(1) 0.0120(1) 0.0004(1) 0.0047(1) 0.0000(1)
O1 O2- 0.0281(4) 0.0209(4) 0.0170(3) 0 0.0115(3) 0
O2 O2- 0.0211(4) 0.0137(3) 0.0246(4) 0 0.0045(3) 0
O3 O2- 0.0218(3) 0.0322(3) 0.0257(3) -0.0041(3) 0.0143(3) 0.0005(3)
O4 O2- 0.0180(3) 0.0174(3) 0.0221(3) -0.0017(2) 0.0068(2) -0.0020(2)
O5 O2- 0.0212(3) 0.0214(3) 0.0144(2) 0.0017(2) 0.0036(2) 0.0013(2)
#End of TTdata_64957-ICSD