
#(C) 2019 by FIZ Karlsruhe - Leibniz Institute for Information Infrastructure.  All rights reserved.
data_64959-ICSD
_database_code_ICSD 64959
_audit_creation_date 1998-06-26
_audit_update_record 2007-08-01
_chemical_name_systematic
'Potassium sodium tecto-alumotrisilicate (0.86/0.14/1)'
_chemical_formula_structural '(K0.86 Na0.14) (Al Si3 O8)'
_chemical_formula_sum 'Al1 K0.86 Na0.14 O8 Si3'
_chemical_name_structure_type Feldspar#-(MO,C12/m1)-KAlSi3O8
_chemical_name_mineral 'Sanidine low'
_exptl_crystal_density_diffrn 2.55
_publ_section_title
'Silizium/Aluminium-Ordnung und Kristallperfektion von Sanidinen'
loop_
_citation_id
_citation_journal_full
_citation_year
_citation_journal_volume
_citation_page_first
_citation_page_last
_citation_journal_id_ASTM
primary 'Kernforschungszentrum Karlsruhe, [Bericht] KfK' 1985 3984 1 50 KKBRAY
loop_
_publ_author_name
'Gering, E.'
_cell_length_a 8.543(1)
_cell_length_b 13.019(1)
_cell_length_c 7.183(1)
_cell_angle_alpha 90.
_cell_angle_beta 115.99(1)
_cell_angle_gamma 90.
_cell_volume 718.11
_cell_formula_units_Z 4
_symmetry_space_group_name_H-M 'C 1 2/m 1'
_symmetry_Int_Tables_number 12
_refine_ls_R_factor_all 0.036
loop_
_symmetry_equiv_pos_site_id
_symmetry_equiv_pos_as_xyz
1 '-x, y, -z'
2 '-x, -y, -z'
3 'x, -y, z'
4 'x, y, z'
5 '-x+1/2, y+1/2, -z'
6 '-x+1/2, -y+1/2, -z'
7 'x+1/2, -y+1/2, z'
8 'x+1/2, y+1/2, z'
loop_
_atom_type_symbol
_atom_type_oxidation_number
K1+ 1
Na1+ 1
Al3+ 3
Si4+ 4
Al3+ 3
Si4+ 4
O2- -2
loop_
_atom_site_label
_atom_site_type_symbol
_atom_site_symmetry_multiplicity
_atom_site_Wyckoff_symbol
_atom_site_fract_x
_atom_site_fract_y
_atom_site_fract_z
_atom_site_B_iso_or_equiv
_atom_site_occupancy
_atom_site_attached_hydrogens
K1 K1+ 4 i 0.2847(2) 0 0.1383(3) . 0.86 0
Na1 Na1+ 4 i 0.2847(2) 0 0.1383(3) . 0.14 0
Al1 Al3+ 8 j 0.00922(6) 0.18431(3) 0.22364(6) . 0.329(8) 0
Si1 Si4+ 8 j 0.00922(6) 0.18431(3) 0.22364(6) . 0.671 0
Al2 Al3+ 8 j 0.20771(5) 0.38226(3) 0.34424(6) . 0.171 0
Si2 Si4+ 8 j 0.20771(5) 0.38226(3) 0.34424(6) . 0.829 0
O1 O2- 4 g 0 0.14588(4) 0 . 1. 0
O2 O2- 4 i 0.63343(7) 0 0.28523(9) . 1. 0
O3 O2- 8 j 0.82771(5) 0.14524(4) 0.22676(6) . 1. 0
O4 O2- 8 j 0.03335(5) 0.30992(3) 0.25748(6) . 1. 0
O5 O2- 8 j 0.18126(5) 0.12628(3) 0.40443(5) . 1. 0
loop_
_atom_site_aniso_label
_atom_site_aniso_type_symbol
_atom_site_aniso_U_11
_atom_site_aniso_U_22
_atom_site_aniso_U_33
_atom_site_aniso_U_12
_atom_site_aniso_U_13
_atom_site_aniso_U_23
K1 K1+ 0.0168(5) 0.067(3) 0.033(1) 0 0.0071(4) 0
Na1 Na1+ 0.0168(5) 0.067(3) 0.033(1) 0 0.0071(4) 0
Al1 Al3+ 0.0098(2) 0.0103(2) 0.0081(1) -0.0024(1) 0.0044(1) -0.0011(1)
Si1 Si4+ 0.0098(2) 0.0103(2) 0.0081(1) -0.0024(1) 0.0044(1) -0.0011(1)
Al2 Al3+ 0.0092(1) 0.0079(1) 0.0099(1) 0.0004(1) 0.0035(1) 0.0001(1)
Si2 Si4+ 0.0092(1) 0.0079(1) 0.0099(1) 0.0004(1) 0.0035(1) 0.0001(1)
O1 O2- 0.0254(2) 0.0184(2) 0.0162(2) 0 0.0108(2) 0
O2 O2- 0.0187(2) 0.0108(2) 0.0235(2) 0 0.0033(2) 0
O3 O2- 0.0194(2) 0.0302(2) 0.0244(2) -0.0044(1) 0.0135(1) 0.0004(2)
O4 O2- 0.0161(1) 0.0148(1) 0.0211(1) -0.0022(1) 0.0062(1) -0.0024(1)
O5 O2- 0.0190(1) 0.0193(2) 0.0132(1) 0.0021(1) 0.0028(1) 0.0016(1)
#End of TTdata_64959-ICSD