
#(C) 2019 by FIZ Karlsruhe - Leibniz Institute for Information Infrastructure.  All rights reserved.
data_65006-ICSD
_database_code_ICSD 65006
_audit_creation_date 1989-06-19
_chemical_name_systematic 'Trisodium lithium bis(molybdate(VI)) hexawater'
_chemical_formula_structural 'Na3 Li (Mo O4)2 (H2 O)6'
_chemical_formula_sum 'H12 Li1 Mo2 Na3 O14'
_exptl_crystal_density_diffrn 2.44
_publ_section_title

;
Crystal structure of sodium lithium molybdate hexahydrate Na3 Li (Mo O4)2 (H2
O)6
;
loop_
_citation_id
_citation_journal_full
_citation_year
_citation_journal_volume
_citation_page_first
_citation_page_last
_citation_journal_id_ASTM
primary Kristallografiya 1988 33 636 641 KRISAJ
loop_
_publ_author_name
'Klevtsova, R.F.'
'Glinskaya, L.A.'
'Klevtsov, P.V.'
_cell_length_a 8.733(2)
_cell_length_b 8.733(2)
_cell_length_c 31.170(5)
_cell_angle_alpha 90.
_cell_angle_beta 90.
_cell_angle_gamma 120.
_cell_volume 2058.71
_cell_formula_units_Z 6
_symmetry_space_group_name_H-M 'R 3 c H'
_symmetry_Int_Tables_number 161
_refine_ls_R_factor_all 0.036
loop_
_symmetry_equiv_pos_site_id
_symmetry_equiv_pos_as_xyz
1 '-x+y, y, z+1/2'
2 'x, x-y, z+1/2'
3 '-y, -x, z+1/2'
4 '-x+y, -x, z'
5 '-y, x-y, z'
6 'x, y, z'
7 '-x+y+2/3, y+1/3, z+5/6'
8 'x+2/3, x-y+1/3, z+5/6'
9 '-y+2/3, -x+1/3, z+5/6'
10 '-x+y+2/3, -x+1/3, z+1/3'
11 '-y+2/3, x-y+1/3, z+1/3'
12 'x+2/3, y+1/3, z+1/3'
13 '-x+y+1/3, y+2/3, z+1/6'
14 'x+1/3, x-y+2/3, z+1/6'
15 '-y+1/3, -x+2/3, z+1/6'
16 '-x+y+1/3, -x+2/3, z+2/3'
17 '-y+1/3, x-y+2/3, z+2/3'
18 'x+1/3, y+2/3, z+2/3'
loop_
_atom_type_symbol
_atom_type_oxidation_number
Mo6+ 6
Na1+ 1
Li1+ 1
O2- -2
H1+ 1
loop_
_atom_site_label
_atom_site_type_symbol
_atom_site_symmetry_multiplicity
_atom_site_Wyckoff_symbol
_atom_site_fract_x
_atom_site_fract_y
_atom_site_fract_z
_atom_site_B_iso_or_equiv
_atom_site_occupancy
_atom_site_attached_hydrogens
Mo1 Mo6+ 6 a 0 0 0.125 0.29 1. 0
Mo2 Mo6+ 6 a 0 0 0.3727 0.27 1. 0
Na1 Na1+ 18 b 0.4442(4) 0.3730(4) 0.1054(1) 0.48 1. 0
Li1 Li1+ 6 a 0 0 0.0081(5) 0.47 1. 0
O1 O2- 6 a 0 0 0.0693(2) 0.75 1. 0
O2 O2- 18 b 0.1745(6) 0.2047(6) 0.1441(1) 0.5 1. 0
O3 O2- 6 a 0 0 0.3162(2) 0.47 1. 0
O4 O2- 18 b 0.2173(6) 0.1531(6) 0.3915(1) 0.48 1. 0
O5 O2- 18 b 0.0444(6) 0.8152(6) -.0117(1) 0.47 1. 0
O6 O2- 18 b 0.4147(7) 0.1183(8) 0.0665(2) 0.58 1. 0
H1 H1+ 18 b 0.103 0.767 0.007 . 1. 0
H2 H1+ 18 b 0.273 0.191 -.015 . 1. 0
H3 H1+ 18 b 0.005 0.355 0.064 . 1. 0
H4 H1+ 18 b 0.45 0.15 0.037 . 1. 0
#End of TTdata_65006-ICSD