
#(C) 2019 by FIZ Karlsruhe - Leibniz Institute for Information Infrastructure.  All rights reserved.
data_65333-ICSD
_database_code_ICSD 65333
_audit_creation_date 1989-12-04
_chemical_name_systematic
'Pentasodium phyllo-di-mue-phosphato-oxofluorotitanate'
_chemical_formula_structural 'Na5 Ti (P O4)2 O F'
_chemical_formula_sum 'F1 Na5 O9 P2 Ti1'
_exptl_crystal_density_diffrn 2.91
_publ_section_title 'Crystal structure of Na5 Ti P2 O9 F'
loop_
_citation_id
_citation_journal_full
_citation_year
_citation_journal_volume
_citation_page_first
_citation_page_last
_citation_journal_id_ASTM
primary Kristallografiya 1988 33 1104 1107 KRISAJ
loop_
_publ_author_name
'Golubev, A.M.'
'Andrianov, V.I.'
'Sigarev, S.E.'
'Timofeeva, V.A.'
_cell_length_a 11.742(3)
_cell_length_b 11.015(8)
_cell_length_c 13.676(3)
_cell_angle_alpha 90.
_cell_angle_beta 90.
_cell_angle_gamma 90.
_cell_volume 1768.83
_cell_formula_units_Z 8
_symmetry_space_group_name_H-M 'P b c a'
_symmetry_Int_Tables_number 61
_refine_ls_R_factor_all 0.05
loop_
_symmetry_equiv_pos_site_id
_symmetry_equiv_pos_as_xyz
1 'x+1/2, y, -z+1/2'
2 'x, -y+1/2, z+1/2'
3 '-x+1/2, y+1/2, z'
4 '-x, -y, -z'
5 '-x+1/2, -y, z+1/2'
6 '-x, y+1/2, -z+1/2'
7 'x+1/2, -y+1/2, -z'
8 'x, y, z'
loop_
_atom_type_symbol
_atom_type_oxidation_number
Ti4+ 4
P5+ 5
Na1+ 1
F1- -1
O2- -2
loop_
_atom_site_label
_atom_site_type_symbol
_atom_site_symmetry_multiplicity
_atom_site_Wyckoff_symbol
_atom_site_fract_x
_atom_site_fract_y
_atom_site_fract_z
_atom_site_B_iso_or_equiv
_atom_site_occupancy
_atom_site_attached_hydrogens
Ti1 Ti4+ 8 c 0.5027(1) 0.0137(1) 0.2644(1) 0.65 1. 0
P1 P5+ 8 c 0.4226(1) 0.2496(1) 0.1270(1) 0.61 1. 0
P2 P5+ 8 c 0.2444(1) -.0141(1) 0.3706(1) 0.63 1. 0
Na1 Na1+ 4 b 0 0 0.5 1.49 1. 0
Na2 Na1+ 4 a 0 0.5 0.5 1.94 1. 0
Na3 Na1+ 8 c 0.1674(1) 0.2577(1) 0.0024(1) 1.45 1. 0
Na4 Na1+ 8 c 0.1625(1) 0.2468(1) 0.2442(1) 1.45 1. 0
Na5 Na1+ 8 c 0.4222(1) 0.2521(1) 0.3758(1) 1.43 1. 0
Na6 Na1+ 8 c 0.2507(1) 0.5116(1) 0.1249(1) 1.62 1. 0
F1 F1- 8 c 0.0783(2) 0.1223(2) 0.1161(1) 1.18 1. 0
O1 O2- 8 c 0.4774(2) 0.2084(2) 0.0328(2) 1.23 1. 0
O2 O2- 8 c 0.0566(2) 0.4302(2) 0.1738(2) 1.25 1. 0
O3 O2- 8 c 0.4772(2) 0.1823(2) 0.2154(2) 1.13 1. 0
O4 O2- 8 c 0.2013(2) 0.0365(2) 0.4670(2) 1.24 1. 0
O5 O2- 8 c 0.2953(2) 0.2303(3) 0.1274(2) 1.64 1. 0
O6 O2- 8 c 0.4489(2) 0.3866(2) 0.1427(2) 1.4 1. 0
O7 O2- 8 c 0.2470(2) 0.3478(2) 0.3711(2) 1.26 1. 0
O8 O2- 8 c 0.3647(2) 0.0412(2) 0.3497(2) 1.05 1. 0
O9 O2- 8 c 0.1653(2) 0.0271(2) 0.2847(2) 1.2 1. 0
#End of TTdata_65333-ICSD