
#(C) 2019 by FIZ Karlsruhe - Leibniz Institute for Information Infrastructure.  All rights reserved.
data_65344-ICSD
_database_code_ICSD 65344
_audit_creation_date 1989-12-04
_chemical_name_systematic 'Sodium lutetium disilicate'
_chemical_formula_structural 'Na3 Lu (Si2 O7)'
_chemical_formula_sum 'Lu1 Na3 O7 Si2'
_exptl_crystal_density_diffrn 3.92
_publ_section_title
'Crystal structure and twinning in sodium lutetium silicate Na3 Lu (Si2 O7)'
loop_
_citation_id
_citation_journal_full
_citation_year
_citation_journal_volume
_citation_page_first
_citation_page_last
_citation_journal_id_ASTM
primary Kristallografiya 1988 33 1128 1133 KRISAJ
loop_
_publ_author_name
'Tamazyan, R.A.'
'Malinovskii, Yu.A.'
'Sirota, M.I.'
'Simonov, V.I.'
_cell_length_a 9.385(1)
_cell_length_b 9.385(1)
_cell_length_c 13.716(2)
_cell_angle_alpha 90.
_cell_angle_beta 90.
_cell_angle_gamma 120.
_cell_volume 1046.23
_cell_formula_units_Z 6
_symmetry_space_group_name_H-M 'P 63/m'
_symmetry_Int_Tables_number 176
_refine_ls_R_factor_all 0.036
loop_
_symmetry_equiv_pos_site_id
_symmetry_equiv_pos_as_xyz
1 '-x+y, -x, -z+1/2'
2 '-y, x-y, -z+1/2'
3 'x, y, -z+1/2'
4 'x-y, x, -z'
5 'y, -x+y, -z'
6 '-x, -y, -z'
7 'x-y, x, z+1/2'
8 'y, -x+y, z+1/2'
9 '-x, -y, z+1/2'
10 '-x+y, -x, z'
11 '-y, x-y, z'
12 'x, y, z'
loop_
_atom_type_symbol
_atom_type_oxidation_number
Lu3+ 3
Si4+ 4
Na1+ 1
O2- -2
loop_
_atom_site_label
_atom_site_type_symbol
_atom_site_symmetry_multiplicity
_atom_site_Wyckoff_symbol
_atom_site_fract_x
_atom_site_fract_y
_atom_site_fract_z
_atom_site_B_iso_or_equiv
_atom_site_occupancy
_atom_site_attached_hydrogens
Lu1 Lu3+ 2 a 0 0 0.25 0.69(2) 1. 0
Lu2 Lu3+ 4 f 0.3333 0.6667 0.0182(1) 0.83(2) 1. 0
Si1 Si4+ 12 i 0.3468(2) 0.3287(2) 0.1412(2) 0.79(5) 1. 0
Na1 Na1+ 2 b 0 0 0 1.6(2) 1. 0
Na2 Na1+ 2 d 0.3333 0.6667 0.75 5.2(8) 1. 0
Na3 Na1+ 2 c 0.3333 0.6667 0.25 2.0(3) 1. 0
Na4 Na1+ 12 i 0.0139(4) 0.3308(4) 0.0921(4) 1.6(1) 1. 0
O1 O2- 12 i 0.4427(8) 0.2717(7) 0.0660(5) 1.6(2) 1. 0
O2 O2- 12 i 0.1266(7) 0.6136(7) 0.1187(5) 1.4(2) 1. 0
O3 O2- 12 i 0.1526(6) 0.1967(6) 0.1407(5) 1.5(2) 1. 0
O4 O2- 6 h 0.4218(8) 0.3222(9) 0.25 1.2(2) 1. 0
#End of TTdata_65344-ICSD