
#(C) 2019 by FIZ Karlsruhe - Leibniz Institute for Information Infrastructure.  All rights reserved.
data_65649-ICSD
_database_code_ICSD 65649
_audit_creation_date 1990-06-08
_audit_update_record 2012-08-01
_chemical_name_systematic 'Copper disodium hydroxide'
_chemical_formula_structural 'Cu Na2 (O H)4'
_chemical_formula_sum 'H4 Cu1 Na2 O4'
_exptl_crystal_density_diffrn 2.89
_publ_section_title 'Copper disodium tetrahydroxide'
loop_
_citation_id
_citation_journal_full
_citation_year
_citation_journal_volume
_citation_page_first
_citation_page_last
_citation_journal_id_ASTM
primary 'Acta Crystallographica, Section C: Crystal Structure Communications'
1989 45 374 376 ACSCEE
loop_
_publ_author_name
'Riou, A.'
'Cudennec, Y.'
'Gerault, Y.'
_cell_length_a 6.750(3)
_cell_length_b 6.726(5)
_cell_length_c 8.993(5)
_cell_angle_alpha 90.
_cell_angle_beta 90.
_cell_angle_gamma 90.
_cell_volume 408.29
_cell_formula_units_Z 4
_symmetry_space_group_name_H-M 'P n a 21'
_symmetry_Int_Tables_number 33
_refine_ls_R_factor_all 0.03
loop_
_symmetry_equiv_pos_site_id
_symmetry_equiv_pos_as_xyz
1 'x+1/2, -y+1/2, z'
2 '-x+1/2, y+1/2, z+1/2'
3 '-x, -y, z+1/2'
4 'x, y, z'
loop_
_atom_type_symbol
_atom_type_oxidation_number
Cu2+ 2
Na1+ 1
O2- -2
H1+ 1
loop_
_atom_site_label
_atom_site_type_symbol
_atom_site_symmetry_multiplicity
_atom_site_Wyckoff_symbol
_atom_site_fract_x
_atom_site_fract_y
_atom_site_fract_z
_atom_site_B_iso_or_equiv
_atom_site_occupancy
_atom_site_attached_hydrogens
Cu1 Cu2+ 4 a 0.26417(5) 0.00723(6) 0 . 1. 0
Na1 Na1+ 4 a 0.5007(3) 0.7148(3) 0.7539(3) . 1. 0
Na2 Na1+ 4 a 0.2558(2) 0.0060(2) 0.4950(4) . 1. 0
O1 O2- 4 a 0.2623(4) 0.0113(4) 0.7753(4) . 1. 0
O2 O2- 4 a 0.2827(5) 0.9925(4) 0.2137(4) . 1. 0
O3 O2- 4 a 0.0538(4) 0.8078(4) 0.0044(4) . 1. 0
O4 O2- 4 a 0.4643(4) 0.2164(4) 0.0059(3) . 1. 0
H1 H1+ 4 a 0.58(1) 0.96(1) 0.240(9) 4. 1. 0
H2 H1+ 4 a 0.25(1) 0.33(1) 0.74(1) 4. 1. 0
H3 H1+ 4 a 0.499(9) 0.24(1) 0.60(1) 4. 1. 0
H4 H1+ 4 a 0.50(1) 0.25(1) 0.91(1) 4. 1. 0
loop_
_atom_site_aniso_label
_atom_site_aniso_type_symbol
_atom_site_aniso_beta_11
_atom_site_aniso_beta_22
_atom_site_aniso_beta_33
_atom_site_aniso_beta_12
_atom_site_aniso_beta_13
_atom_site_aniso_beta_23
Cu1 Cu2+ 0.00552(6) 0.00495(6) 0.00147(3) -.0010(1) -.0007(2) 0.0006(1)
Na1 Na1+ 0.0078(3) 0.0101(3) 0.0016(1) -.0005(5) -.0002(2) 0.0010(3)
Na2 Na1+ 0.0080(3) 0.0066(3) 0.0034(2) 0.0003(4) 0.0035(5) 0.0015(3)
O1 O2- 0.0109(7) 0.0099(7) 0.0010(3) -.0025(5) -.0020(4) 0.0024(4)
O2 O2- 0.0125(7) 0.0098(7) 0.0007(3) -.0025(5) 0.0006(4) -.0025(3)
O3 O2- 0.0079(4) 0.0058(4) 0.0023(3) 0.0000(5) -.0010(5) -.0005(5)
O4 O2- 0.0072(4) 0.0068(5) 0.0019(3) -.0010(5) 0.0010(5) 0.0005(5)
#End of TTdata_65649-ICSD