
#(C) 2019 by FIZ Karlsruhe - Leibniz Institute for Information Infrastructure.  All rights reserved.
data_65699-ICSD
_database_code_ICSD 65699
_audit_creation_date 1990-06-08
_chemical_name_systematic 'Dipotassium sodium phyllo-dicyanoargentate'
_chemical_formula_structural 'K2 Na (Ag (C N)2)3'
_chemical_formula_sum 'C6 Ag3 K2 N6 Na1'
_exptl_crystal_density_diffrn 2.61
_cell_measurement_temperature 298.
_publ_section_title 'Dipotassium sodium tris(dicyanoargentate(I))'
loop_
_citation_id
_citation_journal_full
_citation_year
_citation_journal_volume
_citation_page_first
_citation_page_last
_citation_journal_id_ASTM
primary 'Acta Crystallographica, Section C: Crystal Structure Communications'
1989 45 1619 1621 ACSCEE
loop_
_publ_author_name
'Zabel, M.'
'Kuehnel, S.'
'Range, K.J.'
_cell_length_a 7.0509(7)
_cell_length_b 7.0509(7)
_cell_length_c 8.5766(8)
_cell_angle_alpha 90.
_cell_angle_beta 90.
_cell_angle_gamma 120.
_cell_volume 369.26
_cell_formula_units_Z 1
_symmetry_space_group_name_H-M 'P -3 1 m'
_symmetry_Int_Tables_number 162
_refine_ls_R_factor_all 0.0504
loop_
_symmetry_equiv_pos_site_id
_symmetry_equiv_pos_as_xyz
1 '-x+y, y, -z'
2 'x, x-y, -z'
3 '-y, -x, -z'
4 'x-y, x, -z'
5 'y, -x+y, -z'
6 '-x, -y, -z'
7 'x-y, -y, z'
8 '-x, -x+y, z'
9 'y, x, z'
10 '-x+y, -x, z'
11 '-y, x-y, z'
12 'x, y, z'
loop_
_atom_type_symbol
_atom_type_oxidation_number
Ag1+ 1
K1+ 1
Na1+ 1
C2+ 2
N3- -3
loop_
_atom_site_label
_atom_site_type_symbol
_atom_site_symmetry_multiplicity
_atom_site_Wyckoff_symbol
_atom_site_fract_x
_atom_site_fract_y
_atom_site_fract_z
_atom_site_B_iso_or_equiv
_atom_site_occupancy
_atom_site_attached_hydrogens
Ag1 Ag1+ 3 f 0.5 0 0 . 1. 0
K1 K1+ 2 d 0.6667 0.3333 0.5 . 1. 0
Na1 Na1+ 1 b 0 0 0.5 . 1. 0
C1 C2+ 6 k 0 0.3631(4) 0.2117(3) . 1. 0
N1 N3- 6 k 0 0.2962(4) 0.3316(3) . 1. 0
loop_
_atom_site_aniso_label
_atom_site_aniso_type_symbol
_atom_site_aniso_U_11
_atom_site_aniso_U_22
_atom_site_aniso_U_33
_atom_site_aniso_U_12
_atom_site_aniso_U_13
_atom_site_aniso_U_23
Ag1 Ag1+ 0.0675(2) 0.0634(3) 0.0342(2) 0.0317(2) 0.0180(2) 0
K1 K1+ 0.0349(5) 0.0349(5) 0.0487(8) 0.0175(2) 0 0
Na1 Na1+ 0.0265(10) 0.0265(10) 0.0256(15) 0.0132(5) 0 0
C1 C2+ 0.0383(21) 0.0390(38) 0.0388(20) 0.0195(19) -.0094(29) 0
N1 N3- 0.0417(18) 0.0451(30) 0.0328(16) 0.0226(15) -.0106(23) 0
#End of TTdata_65699-ICSD