
#(C) 2019 by FIZ Karlsruhe - Leibniz Institute for Information Infrastructure.  All rights reserved.
data_65770-ICSD
_database_code_ICSD 65770
_audit_creation_date 1990-06-08
_audit_update_record 2006-04-01
_chemical_name_systematic 'Sodium trifluoromanganate(II)'
_chemical_formula_structural 'Na (Mn F3)'
_chemical_formula_sum 'F3 Mn1 Na1'
_chemical_name_structure_type Perovskite-GdFeO3
_exptl_crystal_density_diffrn 3.51
_cell_measurement_temperature 298.
_publ_section_title 'Structure of Na Mn F3 at room temperature'
loop_
_citation_id
_citation_journal_full
_citation_year
_citation_journal_volume
_citation_page_first
_citation_page_last
_citation_journal_id_ASTM
primary 'Acta Crystallographica, Section C: Crystal Structure Communications'
1989 45 548 551 ACSCEE
loop_
_publ_author_name
'Ratuszna, A.'
'Majewska, K.'
_cell_length_a 5.751(4)
_cell_length_b 8.008(6)
_cell_length_c 5.548(4)
_cell_angle_alpha 90.
_cell_angle_beta 90.
_cell_angle_gamma 90.
_cell_volume 255.51
_cell_formula_units_Z 4
_symmetry_space_group_name_H-M 'P n m a'
_symmetry_Int_Tables_number 62
_refine_ls_R_factor_all 0.043
loop_
_symmetry_equiv_pos_site_id
_symmetry_equiv_pos_as_xyz
1 'x+1/2, y, -z+1/2'
2 'x, -y+1/2, z'
3 '-x+1/2, y+1/2, z+1/2'
4 '-x, -y, -z'
5 '-x+1/2, -y, z+1/2'
6 '-x, y+1/2, -z'
7 'x+1/2, -y+1/2, -z+1/2'
8 'x, y, z'
loop_
_atom_type_symbol
_atom_type_oxidation_number
Mn2+ 2
Na1+ 1
F1- -1
loop_
_atom_site_label
_atom_site_type_symbol
_atom_site_symmetry_multiplicity
_atom_site_Wyckoff_symbol
_atom_site_fract_x
_atom_site_fract_y
_atom_site_fract_z
_atom_site_B_iso_or_equiv
_atom_site_occupancy
_atom_site_attached_hydrogens
Mn1 Mn2+ 4 a 0.5 0.5 0.5 . 1. 0
Na1 Na1+ 4 c 0.0543(6) 0.75 0.5127(4) . 1. 0
F1 F1- 8 d 0.3053(4) 0.5603(3) 0.8093(4) . 1. 0
F2 F1- 4 c 0.4469(6) 0.75 0.3854(5) . 1. 0
loop_
_atom_site_aniso_label
_atom_site_aniso_type_symbol
_atom_site_aniso_U_11
_atom_site_aniso_U_22
_atom_site_aniso_U_33
_atom_site_aniso_U_12
_atom_site_aniso_U_13
_atom_site_aniso_U_23
Mn1 Mn2+ 0.0059(4) 0.0052(4) 0.0063(4) 0.0006(2) -.0005(2) -.0007(2)
Na1 Na1+ 0.013(1) 0.0229(11) 0.0175(10) 0 0.0038(8) 0
F1 F1- 0.0111(8) 0.0202(11) 0.0123(8) -.0058(9) 0.0067(8) -.0052(8)
F2 F1- 0.0179(13) 0.0044(10) 0.0129(11) 0 0.0004(11) 0
#End of TTdata_65770-ICSD