
#(C) 2019 by FIZ Karlsruhe - Leibniz Institute for Information Infrastructure.  All rights reserved.
data_65780-ICSD
_database_code_ICSD 65780
_audit_creation_date 1990-06-08
_audit_update_record 2006-04-01
_chemical_name_systematic 'Disodium ditungstate - II'
_chemical_formula_structural 'Na2 (W2 O7)'
_chemical_formula_sum 'Na2 O7 W2'
_chemical_name_structure_type Sr2Nb2O7
_exptl_crystal_density_diffrn 6.4
_cell_measurement_temperature 296.
_publ_section_title
'Na2 W2 O7 (II), a high-pressure phase of disodium ditungstate (VI)'
loop_
_citation_id
_citation_journal_full
_citation_year
_citation_journal_volume
_citation_page_first
_citation_page_last
_citation_journal_id_ASTM
primary 'Acta Crystallographica, Section C: Crystal Structure Communications'
1990 46 317 318 ACSCEE
loop_
_publ_author_name
'Range, K.J.'
'Haase, H.'
_cell_length_a 3.7777(7)
_cell_length_b 26.6067(38)
_cell_length_c 5.4290(7)
_cell_angle_alpha 90.
_cell_angle_beta 90.
_cell_angle_gamma 90.
_cell_volume 545.68
_cell_formula_units_Z 4
_symmetry_space_group_name_H-M 'C m c 21'
_symmetry_Int_Tables_number 36
_refine_ls_R_factor_all 0.038
loop_
_symmetry_equiv_pos_site_id
_symmetry_equiv_pos_as_xyz
1 'x, -y, z+1/2'
2 '-x, -y, z+1/2'
3 '-x, y, z'
4 'x, y, z'
5 'x+1/2, -y+1/2, z+1/2'
6 '-x+1/2, -y+1/2, z+1/2'
7 '-x+1/2, y+1/2, z'
8 'x+1/2, y+1/2, z'
loop_
_atom_type_symbol
_atom_type_oxidation_number
W6+ 6
Na1+ 1
O2- -2
loop_
_atom_site_label
_atom_site_type_symbol
_atom_site_symmetry_multiplicity
_atom_site_Wyckoff_symbol
_atom_site_fract_x
_atom_site_fract_y
_atom_site_fract_z
_atom_site_B_iso_or_equiv
_atom_site_occupancy
_atom_site_attached_hydrogens
W1 W6+ 4 a 0 0.44470(2) 0.10218 . 1. 0
W2 W6+ 4 a 0 0.34024(2) 0.5745(1) . 1. 0
Na1 Na1+ 4 a 0.5 0.5508(2) 0.1047(16) . 1. 0
Na2 Na1+ 4 a 0.5 0.2874(3) 0.0523(17) . 1. 0
O1 O2- 4 a 0 0.3936(5) 0.9047(22) . 1. 0
O2 O2- 4 a 0 0.5076(5) 0.3457(25) . 1. 0
O3 O2- 4 a 0 0.4084(5) 0.3942(22) 1.2(2) 1. 0
O4 O2- 4 a 0.5 0.3517(4) 0.6240(21) 1.9(2) 1. 0
O5 O2- 4 a 0 0.2910(5) 0.7847(22) 1.4(2) 1. 0
O6 O2- 4 a 0.5 0.4525(5) 0.1483(17) 1.7(2) 1. 0
O7 O2- 4 a 0 0.3059(6) 0.3062(25) 2.3(3) 1. 0
loop_
_atom_site_aniso_label
_atom_site_aniso_type_symbol
_atom_site_aniso_U_11
_atom_site_aniso_U_22
_atom_site_aniso_U_33
_atom_site_aniso_U_12
_atom_site_aniso_U_13
_atom_site_aniso_U_23
W1 W6+ 0.0048(2) 0.0043(2) 0.0032(2) 0 0 0.0006(2)
W2 W6+ 0.0045(2) 0.0052(2) 0.0066(2) 0 0 0.0003(2)
Na1 Na1+ 0.0162(19) 0.0211(22) 0.0125(21) 0 0 0.0039(26)
Na2 Na1+ 0.0138(26) 0.0406(37) 0.0411(42) 0 0 0.0180(39)
O1 O2- 0.085(12) 0.0156(62) 0.009(5) 0 0 0.0044(44)
O2 O2- 0.0534(74) 0.0074(74) 0.0101(49) 0 0 -.0005(43)
#End of TTdata_65780-ICSD