
#(C) 2019 by FIZ Karlsruhe - Leibniz Institute for Information Infrastructure.  All rights reserved.
data_65939-ICSD
_database_code_ICSD 65939
_audit_creation_date 1990-12-27
_chemical_name_systematic 'Sodium iron(III) phosphate fluoride oxide *'
_chemical_formula_structural 'Na4.6 Fe (P O4)2 (O.6 F.4)'
_chemical_formula_sum 'F0.4 Fe1 Na4.6 O8.6 P2'
_exptl_crystal_density_diffrn 3.
_publ_section_title
'Crystal structure of sodium iron(III) fluorophosphate Na4.6 Fe P2 O8.6 F.4'
loop_
_citation_id
_citation_journal_full
_citation_year
_citation_journal_volume
_citation_page_first
_citation_page_last
_citation_journal_id_ASTM
primary Kristallografiya 1989 34 1574 1576 KRISAJ
loop_
_publ_author_name
'Golubev, A.M.'
'Maksimov, B.A.'
'Klokova, N.E.'
'Mel'nikov, O.K. (Melnikov, O.K.)'
'Timofeeva, V.A.'
'Sorokina, N.I.'
'Simonov, V.I.'
_cell_length_a 15.514(5)
_cell_length_b 14.809(6)
_cell_length_c 7.116(1)
_cell_angle_alpha 90.
_cell_angle_beta 90.
_cell_angle_gamma 90.
_cell_volume 1634.88
_cell_formula_units_Z 8
_symmetry_space_group_name_H-M 'I b a m'
_symmetry_Int_Tables_number 72
_refine_ls_R_factor_all 0.04
loop_
_symmetry_equiv_pos_site_id
_symmetry_equiv_pos_as_xyz
1 '-x, y, z+1/2'
2 'x, -y, z+1/2'
3 'x, y, -z'
4 '-x, -y, -z'
5 'x, -y, -z+1/2'
6 '-x, y, -z+1/2'
7 '-x, -y, z'
8 'x, y, z'
9 '-x+1/2, y+1/2, z'
10 'x+1/2, -y+1/2, z'
11 'x+1/2, y+1/2, -z+1/2'
12 '-x+1/2, -y+1/2, -z+1/2'
13 'x+1/2, -y+1/2, -z'
14 '-x+1/2, y+1/2, -z'
15 '-x+1/2, -y+1/2, z+1/2'
16 'x+1/2, y+1/2, z+1/2'
loop_
_atom_type_symbol
_atom_type_oxidation_number
Fe3+ 3
P5+ 5
Na1+ 1
F1- -1
O2- -2
loop_
_atom_site_label
_atom_site_type_symbol
_atom_site_symmetry_multiplicity
_atom_site_Wyckoff_symbol
_atom_site_fract_x
_atom_site_fract_y
_atom_site_fract_z
_atom_site_B_iso_or_equiv
_atom_site_occupancy
_atom_site_attached_hydrogens
Fe1 Fe3+ 8 e 0.25 0.25 0.25 1.09(3) 1. 0
P1 P5+ 8 j 0.1178(1) 0.1212(1) 0 0.74(4) 1. 0
P2 P5+ 8 j 0.1205(1) 0.3792(1) 0.5 0.88(4) 1. 0
Na1 Na1+ 8 f 0.2356(1) 0 0.25 2.04(8) 1. 0
Na2 Na1+ 8 g 0 0.2667(1) 0.25 2.12(9) 1. 0
Na3 Na1+ 8 j 0.1154(1) 0.1346(2) 0.5 2.3(1) 1. 0
Na4 Na1+ 8 g 0 0.0104(11) 0.25 2.34(22) 0.41(1) 0
Na5 Na1+ 8 j 0.1198(1) 0.3857(2) 0 2.30(11) 0.90(1) 0
Na6 Na1+ 8 f 0.0154(6) 0.5 0.25 3.15(38) 0.30(1) 0
F1 F1- 8 j 0.2456(2) 0.3068(2) 0 1.31(10) 0.4 0
O1 O2- 8 j 0.2456(2) 0.3068(2) 0 1.31(10) 0.6 0
O2 O2- 16 k 0.3321(1) 0.3494(2) 0.3214(4) 1.31(9) 1. 0
O3 O2- 16 k 0.1465(1) 0.3252(2) 0.3224(4) 1.46(9) 1. 0
O4 O2- 8 j 0.1137(2) 0.0183(2) 0 1.65(14) 1. 0
O5 O2- 8 j 0.0224(2) 0.3845(2) 0.5 1.73(14) 1. 0
O6 O2- 8 j 0.1641(2) 0.4713(2) 0.5 1.95(15) 1. 0
O7 O2- 8 j 0.0283(2) 0.1641(2) 0 1.89(15) 1. 0
#End of TTdata_65939-ICSD