
#(C) 2019 by FIZ Karlsruhe - Leibniz Institute for Information Infrastructure.  All rights reserved.
data_65959-ICSD
_database_code_ICSD 65959
_audit_creation_date 1990-12-27
_audit_update_record 1998-06-29
_chemical_name_systematic 'Sodium alumosilicate *'
_chemical_formula_structural 'Na7.15 (Al7.2 Si8.8 O32)'
_chemical_formula_sum 'Al7.2 Na7.15 O32 Si8.8'
_chemical_name_structure_type Na7Al7Si9O32
_chemical_name_mineral 'Nepheline (Si-rich)'
_exptl_crystal_density_diffrn 2.59
_cell_measurement_temperature 573.
_publ_section_title 'Structure investigation on sodium-nephelines'
loop_
_citation_id
_citation_journal_full
_citation_year
_citation_journal_volume
_citation_page_first
_citation_page_last
_citation_journal_id_ASTM
primary 'Zeitschrift fuer Kristallographie' 1989 187 39 53 ZEKRDZ
loop_
_publ_author_name
'Hippler, B.'
'Boehm, H.'
_cell_length_a 9.958(1)
_cell_length_b 9.958(1)
_cell_length_c 8.341(1)
_cell_angle_alpha 90.
_cell_angle_beta 90.
_cell_angle_gamma 120.
_cell_volume 716.3
_cell_formula_units_Z 1
_symmetry_space_group_name_H-M 'P 63'
_symmetry_Int_Tables_number 173
_refine_ls_R_factor_all 0.0507
loop_
_symmetry_equiv_pos_site_id
_symmetry_equiv_pos_as_xyz
1 'x-y, x, z+1/2'
2 'y, -x+y, z+1/2'
3 '-x, -y, z+1/2'
4 '-x+y, -x, z'
5 '-y, x-y, z'
6 'x, y, z'
loop_
_atom_type_symbol
_atom_type_oxidation_number
Al3+ 3
Si4+ 4
Al3+ 3
Si4+ 4
Al3+ 3
Si4+ 4
Al3+ 3
Si4+ 4
Na1+ 1
O2- -2
loop_
_atom_site_label
_atom_site_type_symbol
_atom_site_symmetry_multiplicity
_atom_site_Wyckoff_symbol
_atom_site_fract_x
_atom_site_fract_y
_atom_site_fract_z
_atom_site_B_iso_or_equiv
_atom_site_occupancy
_atom_site_attached_hydrogens
Al1 Al3+ 2 b 0.6667 0.3333 0.1829 . 0.45 0
Si1 Si4+ 2 b 0.6667 0.3333 0.1829 . 0.55 0
Al2 Al3+ 2 b 0.6667 0.3333 0.7921(1) . 0.45 0
Si2 Si4+ 2 b 0.6667 0.3333 0.7921(1) . 0.55 0
Al3 Al3+ 6 c 0.3321(1) 0.0955(1) 0.3025(2) . 0.45 0
Si3 Si4+ 6 c 0.3321(1) 0.0955(1) 0.3025(2) . 0.55 0
Al4 Al3+ 6 c 0.3302(1) 0.0952(1) 0.6749(2) . 0.45 0
Si4 Si4+ 6 c 0.3302(1) 0.0952(1) 0.6749(2) . 0.55 0
Na1 Na1+ 6 c 0.4437(1) 0.9970(1) 0.9865(3) . 1. 0
Na2 Na1+ 6 c 0.023(4) 0.042(1) 0.492(2) . 0.192(3) 0
O1 O2- 6 c 0.7030(7) 0.341(4) 0.9769(8) . 0.333 0
O2 O2- 6 c 0.3142(2) 0.0279(2) 0.4794(3) . 1. 0
O3 O2- 6 c 0.5202(3) 0.1734(3) 0.7285(4) . 1. 0
O4 O2- 6 c 0.5086(3) 0.1668(3) 0.2446(4) . 1. 0
O5 O2- 6 c 0.2858(3) 0.2292(3) 0.3032(4) . 1. 0
O6 O2- 6 c 0.2651(3) 0.2244(3) 0.6807(4) . 1. 0
loop_
_atom_site_aniso_label
_atom_site_aniso_type_symbol
_atom_site_aniso_beta_11
_atom_site_aniso_beta_22
_atom_site_aniso_beta_33
_atom_site_aniso_beta_12
_atom_site_aniso_beta_13
_atom_site_aniso_beta_23
Al1 Al3+ 0.0038(1) 0.0038(1) 0.0048(2) 0.0019(1) 0 0
Si1 Si4+ 0.0038(1) 0.0038(1) 0.0048(2) 0.0019(1) 0 0
Al2 Al3+ 0.0034(1) 0.0034(1) 0.0067(2) 0.0017(1) 0 0
Si2 Si4+ 0.0034(1) 0.0034(1) 0.0067(2) 0.0017(1) 0 0
Al3 Al3+ 0.0040(1) 0.0031(1) 0.0044(1) 0.0017(1) 0.0004(1) 0.0001(1)
Si3 Si4+ 0.0040(1) 0.0031(1) 0.0044(1) 0.0017(1) 0.0004(1) 0.0001(1)
Al4 Al3+ 0.0040(1) 0.0029(1) 0.0042(1) 0.0016(1) 0.0006(1) 0.0002(1)
Si4 Si4+ 0.0040(1) 0.0029(1) 0.0042(1) 0.0016(1) 0.0006(1) 0.0002(1)
Na1 Na1+ 0.0092(1) 0.0143(1) 0.0102(1) 0.0065(1) -.0006(2) 0.0002(3)
Na2 Na1+ 0.019(5) 0.023(3) 0.034(2) 0.014(4) 0.003(5) 0.000(3)
O1 O2- 0.0089(9) 0.0105(6) 0.0045(5) 0.003(2) 0.0025(9) 0.001(2)
O2 O2- 0.0175(3) 0.0084(2) 0.0039(1) 0.0089(2) 0.0001(4) 0.0005(3)
O3 O2- 0.0036(2) 0.0044(3) 0.0222(5) 0.0014(2) -.0026(3) -.0016(3)
O4 O2- 0.0055(3) 0.0068(4) 0.0214(5) 0.0024(3) 0.0035(3) 0.0017(4)
O5 O2- 0.0095(2) 0.0072(3) 0.0066(2) 0.0065(2) -.0001(2) 0.0008(2)
O6 O2- 0.0121(4) 0.0096(3) 0.0063(2) 0.0085(3) 0.0003(3) -.0006(2)
#End of TTdata_65959-ICSD