
#(C) 2019 by FIZ Karlsruhe - Leibniz Institute for Information Infrastructure.  All rights reserved.
data_65960-ICSD
_database_code_ICSD 65960
_audit_creation_date 1990-12-27
_audit_update_record 1998-06-29
_chemical_name_systematic 'Sodium alumosilicate *'
_chemical_formula_structural 'Na7.15 (Al7.2 Si8.8 O32)'
_chemical_formula_sum 'Al7.2 Na7.15 O32 Si8.8'
_chemical_name_structure_type Na7Al7Si9O32
_chemical_name_mineral 'Nepheline (Si-rich)'
_exptl_crystal_density_diffrn 2.59
_cell_measurement_temperature 773.
_publ_section_title 'Structure investigation on sodium-nephelines'
loop_
_citation_id
_citation_journal_full
_citation_year
_citation_journal_volume
_citation_page_first
_citation_page_last
_citation_journal_id_ASTM
primary 'Zeitschrift fuer Kristallographie' 1989 187 39 53 ZEKRDZ
loop_
_publ_author_name
'Hippler, B.'
'Boehm, H.'
_cell_length_a 9.958(1)
_cell_length_b 9.958(1)
_cell_length_c 8.341(1)
_cell_angle_alpha 90.
_cell_angle_beta 90.
_cell_angle_gamma 120.
_cell_volume 716.3
_cell_formula_units_Z 1
_symmetry_space_group_name_H-M 'P 63'
_symmetry_Int_Tables_number 173
_refine_ls_R_factor_all 0.0536
loop_
_symmetry_equiv_pos_site_id
_symmetry_equiv_pos_as_xyz
1 'x-y, x, z+1/2'
2 'y, -x+y, z+1/2'
3 '-x, -y, z+1/2'
4 '-x+y, -x, z'
5 '-y, x-y, z'
6 'x, y, z'
loop_
_atom_type_symbol
_atom_type_oxidation_number
Al3+ 3
Si4+ 4
Al3+ 3
Si4+ 4
Al3+ 3
Si4+ 4
Al3+ 3
Si4+ 4
Na1+ 1
O2- -2
loop_
_atom_site_label
_atom_site_type_symbol
_atom_site_symmetry_multiplicity
_atom_site_Wyckoff_symbol
_atom_site_fract_x
_atom_site_fract_y
_atom_site_fract_z
_atom_site_B_iso_or_equiv
_atom_site_occupancy
_atom_site_attached_hydrogens
Al1 Al3+ 2 b 0.6667 0.3333 0.1829 . 0.45 0
Si1 Si4+ 2 b 0.6667 0.3333 0.1829 . 0.55 0
Al2 Al3+ 2 b 0.6667 0.3333 0.7933(1) . 0.45 0
Si2 Si4+ 2 b 0.6667 0.3333 0.7933(1) . 0.55 0
Al3 Al3+ 6 c 0.3326(1) 0.0974(1) 0.3028(2) . 0.45 0
Si3 Si4+ 6 c 0.3326(1) 0.0974(1) 0.3028(2) . 0.55 0
Al4 Al3+ 6 c 0.3305(1) 0.0974(1) 0.6757(2) . 0.45 0
Si4 Si4+ 6 c 0.3305(1) 0.0974(1) 0.6757(2) . 0.55 0
Na1 Na1+ 6 c 0.4441(1) 0.9961(2) 0.9875(4) . 1. 0
Na2 Na1+ 6 c 0.019(7) 0.041(5) 0.492(2) . 0.192(3) 0
O1 O2- 6 c 0.704(1) 0.340(4) 0.9775(8) . 0.333 0
O2 O2- 6 c 0.3157(3) 0.0322(2) 0.4801(3) . 1. 0
O3 O2- 6 c 0.5191(3) 0.1742(3) 0.7308(4) . 1. 0
O4 O2- 6 c 0.5080(4) 0.1696(4) 0.2458(4) . 1. 0
O5 O2- 6 c 0.2858(3) 0.2304(3) 0.3020(4) . 1. 0
O6 O2- 6 c 0.2638(4) 0.2247(4) 0.6835(4) . 1. 0
loop_
_atom_site_aniso_label
_atom_site_aniso_type_symbol
_atom_site_aniso_beta_11
_atom_site_aniso_beta_22
_atom_site_aniso_beta_33
_atom_site_aniso_beta_12
_atom_site_aniso_beta_13
_atom_site_aniso_beta_23
Al1 Al3+ 0.0047(1) 0.0047(1) 0.0062(2) 0.0024(1) 0 0
Si1 Si4+ 0.0047(1) 0.0047(1) 0.0062(2) 0.0024(1) 0 0
Al2 Al3+ 0.0044(1) 0.0044(1) 0.0081(2) 0.0022(1) 0 0
Si2 Si4+ 0.0044(1) 0.0044(1) 0.0081(2) 0.0022(1) 0 0
Al3 Al3+ 0.0051(1) 0.0040(1) 0.0055(1) 0.0023(1) 0.0005(1) 0.0002(1)
Si3 Si4+ 0.0051(1) 0.0040(1) 0.0055(1) 0.0023(1) 0.0005(1) 0.0002(1)
Al4 Al3+ 0.0052(1) 0.0037(1) 0.0053(1) 0.0021(1) 0.0006(1) 0.0002(1)
Si4 Si4+ 0.0052(1) 0.0037(1) 0.0053(1) 0.0021(1) 0.0006(1) 0.0002(1)
Na1 Na1+ 0.0122(1) 0.0182(2) 0.0137(2) 0.0086(1) -.0008(3) 0.0007(4)
Na2 Na1+ 0.028(9) 0.030(7) 0.048(2) 0.022(9) 0.002(8) 0.002(5)
O1 O2- 0.010(1) 0.0123(7) 0.0061(5) 0.004(2) 0.003(1) 0.002(2)
O2 O2- 0.0209(3) 0.0106(2) 0.0048(2) 0.0107(2) -.0003(4) 0.0005(3)
O3 O2- 0.0045(3) 0.0053(3) 0.0258(6) 0.0015(2) -.0031(3) -.0015(4)
O4 O2- 0.0075(4) 0.0098(5) 0.0251(5) 0.0035(3) 0.0046(4) 0.0030(4)
O5 O2- 0.0121(3) 0.0086(3) 0.0080(2) 0.0080(3) -.0006(3) 0.0007(3)
O6 O2- 0.0156(5) 0.0127(4) 0.0085(3) 0.0111(4) -.0001(3) -.0012(3)
#End of TTdata_65960-ICSD