
#(C) 2019 by FIZ Karlsruhe - Leibniz Institute for Information Infrastructure.  All rights reserved.
data_65963-ICSD
_database_code_ICSD 65963
_audit_creation_date 1990-12-27
_chemical_name_systematic 'Dicesium sodium vanadate'
_chemical_formula_structural 'Cs2 Na (V O4)'
_chemical_formula_sum 'Cs2 Na1 O4 V1'
_chemical_name_structure_type Cs2NaAsO4
_exptl_crystal_density_diffrn 4.16
_publ_section_title 'Ein neues Orthovanadate(V): Cs2 Na (V O4)'
loop_
_citation_id
_citation_journal_full
_citation_year
_citation_journal_volume
_citation_page_first
_citation_page_last
_citation_journal_id_ASTM
primary 'Zeitschrift fuer Anorganische und Allgemeine Chemie (1950) (DE)' 1990
587 29 38 ZAACAB
loop_
_publ_author_name
'Kissel, J.'
'Hoppe, R.'
_cell_length_a 8.399(1)
_cell_length_b 6.247(1)
_cell_length_c 6.148(1)
_cell_angle_alpha 90.
_cell_angle_beta 92.66(1)
_cell_angle_gamma 90.
_cell_volume 322.23
_cell_formula_units_Z 2
_symmetry_space_group_name_H-M 'P 1 21/m 1'
_symmetry_Int_Tables_number 11
_refine_ls_R_factor_all 0.0423
loop_
_symmetry_equiv_pos_site_id
_symmetry_equiv_pos_as_xyz
1 'x, -y+1/2, z'
2 '-x, -y, -z'
3 '-x, y+1/2, -z'
4 'x, y, z'
loop_
_atom_type_symbol
_atom_type_oxidation_number
V5+ 5
Na1+ 1
Cs1+ 1
O2- -2
loop_
_atom_site_label
_atom_site_type_symbol
_atom_site_symmetry_multiplicity
_atom_site_Wyckoff_symbol
_atom_site_fract_x
_atom_site_fract_y
_atom_site_fract_z
_atom_site_B_iso_or_equiv
_atom_site_occupancy
_atom_site_attached_hydrogens
V1 V5+ 2 e 0.2422(2) 0.25 0.2907(3) . 1. 0
Na1 Na1+ 2 e 0.0236(4) 0.25 0.8673(7) . 1. 0
Cs1 Cs1+ 2 e 0.5038(1) 0.25 0.7994(1) . 1. 0
Cs2 Cs1+ 2 e 0.8149(1) 0.25 0.3435(1) . 1. 0
O1 O2- 2 e 0.1756(8) 0.25 0.5503(12) . 1. 0
O2 O2- 2 e 0.4471(7) 0.25 0.3004(12) . 1. 0
O3 O2- 4 f 0.8300(6) 0.5290(7) 0.8486(9) . 1. 0
loop_
_atom_site_aniso_label
_atom_site_aniso_type_symbol
_atom_site_aniso_U_11
_atom_site_aniso_U_22
_atom_site_aniso_U_33
_atom_site_aniso_U_12
_atom_site_aniso_U_13
_atom_site_aniso_U_23
V1 V5+ 0.0112(6) 0.0089(6) 0.0137(7) 0 -.0004(5) 0
Na1 Na1+ 0.0194(17) 0.0167(19) 0.0179(18) 0 0.0038(15) 0
Cs1 Cs1+ 0.0216(3) 0.0143(3) 0.0164(3) 0 0.0004(2) 0
Cs2 Cs1+ 0.0180(3) 0.0199(3) 0.0289(4) 0 0.0026(2) 0
O1 O2- 0.0200(31) 0.0265(36) 0.0220(35) 0 0.0046(27) 0
O2 O2- 0.0146(27) 0.0230(35) 0.0191(32) 0 0.0003(24) 0
O3 O2- 0.0260(23) 0.0152(22) 0.0275(26) 0.0008(18) -.0056(20) 0.0017(21)
#End of TTdata_65963-ICSD