
#(C) 2019 by FIZ Karlsruhe - Leibniz Institute for Information Infrastructure.  All rights reserved.
data_65961-ICSD
_database_code_ICSD 65961
_audit_creation_date 1990-12-27
_audit_update_record 1998-06-29
_chemical_name_systematic 'Sodium alumosilicate *'
_chemical_formula_structural 'Na6.8 (Al6.3 Si9.7 O32)'
_chemical_formula_sum 'Al6.3 Na6.8 O32 Si9.7'
_chemical_name_structure_type Na7Al7Si9O32
_chemical_name_mineral 'Nepheline (Si-rich)'
_exptl_crystal_density_diffrn 2.57
_publ_section_title 'Structure investigation on sodium-nephelines'
loop_
_citation_id
_citation_journal_full
_citation_year
_citation_journal_volume
_citation_page_first
_citation_page_last
_citation_journal_id_ASTM
primary 'Zeitschrift fuer Kristallographie' 1989 187 39 53 ZEKRDZ
loop_
_publ_author_name
'Hippler, B.'
'Boehm, H.'
_cell_length_a 9.959(1)
_cell_length_b 9.959(1)
_cell_length_c 8.344(1)
_cell_angle_alpha 90.
_cell_angle_beta 90.
_cell_angle_gamma 120.
_cell_volume 716.7
_cell_formula_units_Z 1
_symmetry_space_group_name_H-M 'P 63'
_symmetry_Int_Tables_number 173
_refine_ls_R_factor_all 0.0223
loop_
_symmetry_equiv_pos_site_id
_symmetry_equiv_pos_as_xyz
1 'x-y, x, z+1/2'
2 'y, -x+y, z+1/2'
3 '-x, -y, z+1/2'
4 '-x+y, -x, z'
5 '-y, x-y, z'
6 'x, y, z'
loop_
_atom_type_symbol
_atom_type_oxidation_number
Al3+ 3
Si4+ 4
Al3+ 3
Si4+ 4
Al3+ 3
Si4+ 4
Al3+ 3
Si4+ 4
Na1+ 1
O2- -2
loop_
_atom_site_label
_atom_site_type_symbol
_atom_site_symmetry_multiplicity
_atom_site_Wyckoff_symbol
_atom_site_fract_x
_atom_site_fract_y
_atom_site_fract_z
_atom_site_B_iso_or_equiv
_atom_site_occupancy
_atom_site_attached_hydrogens
Al1 Al3+ 2 b 0.6667 0.3333 0.1829 . 0.394 0
Si1 Si4+ 2 b 0.6667 0.3333 0.1829 . 0.606 0
Al2 Al3+ 2 b 0.6667 0.3333 0.7928(1) . 0.394 0
Si2 Si4+ 2 b 0.6667 0.3333 0.7928(1) . 0.606 0
Al3 Al3+ 6 c 0.3319(1) 0.0938(1) 0.3009(2) . 0.394 0
Si3 Si4+ 6 c 0.3319(1) 0.0938(1) 0.3009(2) . 0.606 0
Al4 Al3+ 6 c 0.3310(1) 0.0941(1) 0.6732(2) . 0.394 0
Si4 Si4+ 6 c 0.3310(1) 0.0941(1) 0.6732(2) . 0.606 0
Na1 Na1+ 6 c 0.4423(1) 0.9969(1) 0.9869(3) . 1. 0
Na2 Na1+ 6 c 0.0264(7) 0.0352(8) 0.479(1) . 0.133(1) 0
O1 O2- 6 c 0.7089(3) 0.3411(8) 0.9901(7) . 0.333 0
O2 O2- 6 c 0.3164(1) 0.0271(1) 0.4855(3) . 1. 0
O3 O2- 6 c 0.5187(2) 0.1736(2) 0.7204(3) . 1. 0
O4 O2- 6 c 0.5118(2) 0.1652(2) 0.2373(3) . 1. 0
O5 O2- 6 c 0.2824(2) 0.2310(2) 0.2999(4) . 1. 0
O6 O2- 6 c 0.2715(2) 0.2231(2) 0.6765(3) . 1. 0
loop_
_atom_site_aniso_label
_atom_site_aniso_type_symbol
_atom_site_aniso_beta_11
_atom_site_aniso_beta_22
_atom_site_aniso_beta_33
_atom_site_aniso_beta_12
_atom_site_aniso_beta_13
_atom_site_aniso_beta_23
Al1 Al3+ 0.0026(1) 0.0026(1) 0.0051(2) 0.0013(1) 0 0
Si1 Si4+ 0.0026(1) 0.0026(1) 0.0051(1) 0.0013(1) 0 0
Al2 Al3+ 0.0032(1) 0.0032(1) 0.0043(1) 0.0016(1) 0 0
Si2 Si4+ 0.0032(1) 0.0032(1) 0.0043(1) 0.0016(1) 0 0
Al3 Al3+ 0.0037(1) 0.0023(1) 0.0037(1) 0.0013(1) -.0002(1) -.0006(1)
Si3 Si4+ 0.0037(1) 0.0023(1) 0.0037(1) 0.0013(1) -.0002(1) -.0006(1)
Al4 Al3+ 0.0025(1) 0.0023(1) 0.0037(1) 0.0014(1) 0.0001(1) -.0006(1)
Si4 Si4+ 0.0025(1) 0.0023(1) 0.0037(1) 0.0014(1) 0.0001(1) -.0006(1)
Na1 Na1+ 0.0058(1) 0.0094(1) 0.0066(1) 0.0040(1) -.0019(2) -.0018(2)
Na2 Na1+ 0.0080(8) 0.021(2) 0.0205(9) 0.0078(7) 0.007(1) 0.008(2)
O1 O2- 0.0081(4) 0.0086(3) 0.0047(1) 0.0024(5) -.0009(8) 0.000(1)
O2 O2- 0.0186(1) 0.0075(1) 0.0048(1) 0.0094(1) 0.0004(4) -.0004(3)
O3 O2- 0.0027(1) 0.0042(2) 0.0228(3) 0.0015(1) -.0011(2) 0.0030(2)
O4 O2- 0.0054(2) 0.0036(1) 0.0185(3) 0.0018(1) 0.0029(2) -.0016(2)
O5 O2- 0.0061(1) 0.0054(2) 0.0058(2) 0.0037(1) 0.0008(2) 0.0010(2)
O6 O2- 0.0118(3) 0.0064(2) 0.0045(2) 0.0063(2) -.0003(2) -.0001(2)
#End of TTdata_65961-ICSD