
#(C) 2019 by FIZ Karlsruhe - Leibniz Institute for Information Infrastructure.  All rights reserved.
data_66-ICSD
_database_code_ICSD 66
_audit_creation_date 1980-01-01
_audit_update_record 2011-08-01
_chemical_name_systematic 'Sodium dihydrogenphosphate(V) dihydrate'
_chemical_formula_structural 'Na (H2 P O4) (H2 O)2'
_chemical_formula_sum 'H6 Na1 O6 P1'
_chemical_name_structure_type NaH2PO4(H2O)2
_exptl_crystal_density_diffrn 1.89
_publ_section_title

;
Hydrogen bonding in the cristalline state. The crystal structure of Na H2 P O4
(H2 O) by X-ray and neutron diffraction
;
loop_
_citation_id
_citation_journal_full
_citation_year
_citation_journal_volume
_citation_page_first
_citation_page_last
_citation_journal_id_ASTM
primary

;
Acta Crystallographica, Section B: Structural Crystallography and Crystal
Chemistry
; 1976 32 987 994 ACBCAR
loop_
_publ_author_name
'Bartl, H.'
'Catti, M.'
'Ferraris, G.'
_cell_length_a 7.275(9)
_cell_length_b 11.384(6)
_cell_length_c 6.606(4)
_cell_angle_alpha 90.
_cell_angle_beta 90.
_cell_angle_gamma 90.
_cell_volume 547.1
_cell_formula_units_Z 4
_symmetry_space_group_name_H-M 'P 21 21 21'
_symmetry_Int_Tables_number 19
_refine_ls_R_factor_all 0.059
loop_
_symmetry_equiv_pos_site_id
_symmetry_equiv_pos_as_xyz
1 '-x, y+1/2, -z+1/2'
2 'x+1/2, -y+1/2, -z'
3 '-x+1/2, -y, z+1/2'
4 'x, y, z'
loop_
_atom_type_symbol
_atom_type_oxidation_number
P5+ 5
Na1+ 1
O2- -2
H1+ 1
loop_
_atom_site_label
_atom_site_type_symbol
_atom_site_symmetry_multiplicity
_atom_site_Wyckoff_symbol
_atom_site_fract_x
_atom_site_fract_y
_atom_site_fract_z
_atom_site_B_iso_or_equiv
_atom_site_occupancy
_atom_site_attached_hydrogens
P1 P5+ 4 a 0.7135(4) 0.6508(2) 0.9557(3) . 1. 0
Na1 Na1+ 4 a 0.3918(4) 0.4202(4) 0.7805(5) . 1. 0
O1 O2- 4 a 0.7260(4) 0.7824(2) 0.9451(3) . 1. 0
O2 O2- 4 a 0.8288(4) 0.5858(2) 0.8017(4) . 1. 0
O3 O2- 4 a 0.5107(4) 0.6040(2) 0.9298(4) . 1. 0
O4 O2- 4 a 0.7764(4) 0.6137(2) 1.1756(3) . 1. 0
O5 O2- 4 a 0.0455(6) 0.7234(2) 0.5459(4) . 1. 0
O6 O2- 4 a 0.1227(5) 0.4565(2) 0.9737(4) . 1. 0
H1 H1+ 4 a 0.4031(7) 0.6540(4) 0.9827(7) . 1. 0
H2 H1+ 4 a 0.7346(7) 0.5316(4) 1.2192(7) . 1. 0
H3 H1+ 4 a -.0304(11) 0.6793(5) 0.6411(9) . 1. 0
H4 H1+ 4 a 0.1456(12) 0.7508(8) 0.6224(12) . 1. 0
H5 H1+ 4 a 0.0314(10) 0.5039(5) 0.9046(9) . 1. 0
H6 H1+ 4 a 0.0692(10) 0.3802(5) 0.9881(12) . 1. 0
loop_
_atom_site_aniso_label
_atom_site_aniso_type_symbol
_atom_site_aniso_B_11
_atom_site_aniso_B_22
_atom_site_aniso_B_33
_atom_site_aniso_B_12
_atom_site_aniso_B_13
_atom_site_aniso_B_23
P1 P5+ 1.07(10) 0.60(6) 0.94(6) -.13(7) 0.01(7) -.11(5)
Na1 Na1+ 1.54(15) 1.38(10) 1.51(10) -.18(12) 0.07(12) -.28(8)
O1 O2- 1.72(10) 0.55(5) 1.89(6) 0.11(7) -.36(8) -.02(5)
O2 O2- 1.66(10) 1.21(6) 1.62(6) 0.24(8) 0.37(7) -.52(5)
O3 O2- 0.94(9) 1.16(6) 2.29(8) -.09(8) 0.0(8) -.61(6)
O4 O2- 1.89(10) 1.36(7) 1.24(6) -.28(8) -.38(7) 0.37(5)
O5 O2- 3.04(14) 1.83(8) 1.94(8) -.13(10) 0.50(11) -.15(7)
O6 O2- 1.83(11) 1.52(8) 2.28(8) 0.29(10) 0.21(10) -.13(7)
H1 H1+ 2.34(20) 1.73(12) 2.45(14) 0.13(16) 0.16(16) -.32(11)
H2 H1+ 2.69(19) 2.02(15) 2.15(12) -.10(16) -.29(15) 0.29(10)
H3 H1+ 4.10(28) 2.79(18) 2.88(16) -.18(20) 0.89(22) -.11(16)
H4 H1+ 3.66(26) 4.73(29) 4.08(25) -.29(28) -.22(25) -.22(24)
H5 H1+ 3.56(26) 2.69(18) 3.22(18) 0.50(23) -.31(22) 0.25(16)
H6 H1+ 3.36(27) 2.29(18) 4.70(27) -.24(20) -.05(22) 0.21(17)
#End of TTdata_66-ICSD