
#(C) 2019 by FIZ Karlsruhe - Leibniz Institute for Information Infrastructure.  All rights reserved.
data_66027-ICSD
_database_code_ICSD 66027
_audit_creation_date 1991-07-10
_audit_update_record 2007-08-01
_chemical_name_systematic
'Sodium tetrahydroxohexaoxopentaborate trihydrate - beta'
_chemical_formula_structural 'Na (B5 O6 (O H)4) (H2 O)3'
_chemical_formula_sum 'H10 B5 Na1 O13'
_chemical_name_structure_type NaB5O6(OH)4(H2O)3
_chemical_name_mineral 'Sborgite beta'
_exptl_crystal_density_diffrn 1.72
_publ_section_title

;
Sborgit und beta-Sborgit - eine zweite synthetische Modifikation von Na (B5 O6
(O H)4) (H2 O)3
;
loop_
_citation_id
_citation_journal_full
_citation_year
_citation_journal_volume
_citation_page_first
_citation_page_last
_citation_journal_id_ASTM
primary 'Zeitschrift fuer Naturforschung, B: A Journal of Chemical Sciences'
1990 45 1155 1166 ZNBSEN
loop_
_publ_author_name
'Timper, U.'
'Heller, G.'
'Shakibaie-Moghadam, M.'
_cell_length_a 11.097(3)
_cell_length_b 16.435(4)
_cell_length_c 13.786(4)
_cell_angle_alpha 90.
_cell_angle_beta 115.02(2)
_cell_angle_gamma 90.
_cell_volume 2278.34
_cell_formula_units_Z 8
_symmetry_space_group_name_H-M 'C 1 2/c 1'
_symmetry_Int_Tables_number 15
_refine_ls_R_factor_all 0.031
loop_
_symmetry_equiv_pos_site_id
_symmetry_equiv_pos_as_xyz
1 'x, -y, z+1/2'
2 '-x, -y, -z'
3 '-x, y, -z+1/2'
4 'x, y, z'
5 'x+1/2, -y+1/2, z+1/2'
6 '-x+1/2, -y+1/2, -z'
7 '-x+1/2, y+1/2, -z+1/2'
8 'x+1/2, y+1/2, z'
loop_
_atom_type_symbol
_atom_type_oxidation_number
Na1+ 1
B3+ 3
O2- -2
H1+ 1
loop_
_atom_site_label
_atom_site_type_symbol
_atom_site_symmetry_multiplicity
_atom_site_Wyckoff_symbol
_atom_site_fract_x
_atom_site_fract_y
_atom_site_fract_z
_atom_site_B_iso_or_equiv
_atom_site_occupancy
_atom_site_attached_hydrogens
Na1 Na1+ 4 e 0.5 0.40308(7) 0.25 0.0279 1. 0
Na2 Na1+ 4 e 0.5 0.12789(8) 0.75 0.037 1. 0
B1 B3+ 8 f 0.3234(3) 0.1669(2) 0.3234(2) 0.0233 1. 0
B2 B3+ 8 f 0.5232(3) 0.0937(2) 0.4523(2) 0.0252 1. 0
B3 B3+ 8 f 0.4067(3) 0.1812(2) 0.5202(2) 0.0271 1. 0
B4 B3+ 8 f 0.1495(3) 0.1369(2) 0.1432(2) 0.0244 1. 0
B5 B3+ 8 f 0.3042(3) 0.2443(2) 0.1649(2) 0.0228 1. 0
O1 O2- 8 f 0.6280(2) 0.0430(2) 0.4742(2) 0.0336 1. 0
O2 O2- 8 f 0.5151(2) 0.13266(9) 0.5385(2) 0.0288 1. 0
O3 O2- 8 f 0.4019(2) 0.2130(2) 0.6094(2) 0.0373 1. 0
O4 O2- 8 f 0.4302(2) 0.10604(9) 0.3515(2) 0.027 1. 0
O5 O2- 8 f 0.3112(2) 0.19497(9) 0.4204(2) 0.0264 1. 0
O6 O2- 8 f 0.1977(2) 0.12824(9) 0.2505(2) 0.0237 1. 0
O7 O2- 8 f 0.3510(2) 0.23739(9) 0.2720(2) 0.0256 1. 0
O8 O2- 8 f 0.0429(2) 0.0950(2) 0.0734(2) 0.0341 1. 0
O9 O2- 8 f 0.2094(2) 0.19018(9) 0.0978(2) 0.0268 1. 0
O10 O2- 8 f 0.3495(2) 0.3066(2) 0.1253(2) 0.03 1. 0
O11 O2- 8 f 0.6257(2) 0.5109(2) 0.3612(2) 0.0301 1. 0
O12 O2- 8 f 0.6188(2) 0.3924(2) 0.1415(2) 0.0306 1. 0
O13 O2- 8 f 0.6514(2) 0.0226(2) 0.8013(2) 0.0344 1. 0
H1 H1+ 8 f 0.633(4) 0.021(3) 0.422(3) 0.0841 1. 0
H2 H1+ 8 f 0.332(3) 0.242(2) 0.599(3) 0.0795 1. 0
H3 H1+ 8 f 0.003(4) 0.066(3) 0.098(3) 0.1058 1. 0
H4 H1+ 8 f 0.324(3) 0.307(2) 0.063(3) 0.0446 1. 0
H5 H1+ 8 f 0.649(3) 0.543(2) 0.331(3) 0.0458 1. 0
H6 H1+ 8 f 0.693(3) 0.494(2) 0.407(3) 0.069 1. 0
H7 H1+ 8 f 0.631(3) 0.342(2) 0.153(3) 0.058 1. 0
H8 H1+ 8 f 0.572(3) 0.398(2) 0.084(3) 0.0605 1. 0
H9 H1+ 8 f 0.635(3) -.015(2) 0.760(3) 0.0381 1. 0
H10 H1+ 8 f 0.725(4) 0.044(3) 0.816(3) 0.0848 1. 0
#End of TTdata_66027-ICSD