
#(C) 2019 by FIZ Karlsruhe - Leibniz Institute for Information Infrastructure.  All rights reserved.
data_66057-ICSD
_database_code_ICSD 66057
_audit_creation_date 1991-07-10
_audit_update_record 2006-04-01
_chemical_name_systematic 'Tetrasodium tetracalcium cyclo-hexasilicate'
_chemical_formula_structural 'Na4 Ca4 (Si6 O18)'
_chemical_formula_sum 'Ca4 Na4 O18 Si6'
_chemical_name_structure_type Na4Ca4Si6O18
_exptl_crystal_density_diffrn 2.81
_cell_measurement_temperature 523.
_publ_section_title
'Structural study of the phase transition of Na4 Ca4 (Si6 O18)'
loop_
_citation_id
_citation_journal_full
_citation_year
_citation_journal_volume
_citation_page_first
_citation_page_last
_citation_journal_id_ASTM
primary 'Acta Crystallographica, Section B: Structural Science' 1990 46 125 131
ASBSDK
loop_
_publ_author_name
'Ohsato, H.'
'Takeuchi, Y.'
'Maki, I.'
_cell_length_a 10.494(1)
_cell_length_b 10.494(1)
_cell_length_c 13.189(3)
_cell_angle_alpha 90.
_cell_angle_beta 90.
_cell_angle_gamma 120.
_cell_volume 1257.84
_cell_formula_units_Z 3
_symmetry_space_group_name_H-M 'P 31 2 1'
_symmetry_Int_Tables_number 152
_refine_ls_R_factor_all 0.0357
loop_
_symmetry_equiv_pos_site_id
_symmetry_equiv_pos_as_xyz
1 'x-y, -y, -z+2/3'
2 '-x, -x+y, -z+1/3'
3 'y, x, -z'
4 '-x+y, -x, z+2/3'
5 '-y, x-y, z+1/3'
6 'x, y, z'
loop_
_atom_type_symbol
_atom_type_oxidation_number
O2- -2
Si4+ 4
Na1+ 1
Ca2+ 2
Na1+ 1
Ca2+ 2
Na1+ 1
Ca2+ 2
loop_
_atom_site_label
_atom_site_type_symbol
_atom_site_symmetry_multiplicity
_atom_site_Wyckoff_symbol
_atom_site_fract_x
_atom_site_fract_y
_atom_site_fract_z
_atom_site_B_iso_or_equiv
_atom_site_occupancy
_atom_site_attached_hydrogens
O1 O2- 3 b 0.1635(5) 0 0.8333 . 1. 0
O2 O2- 3 b 0.5573(6) 0 0.8333 . 1. 0
O3 O2- 6 c 0.3447(4) 0.2818(4) 0.8371(2) . 1. 0
O4 O2- 6 c 0.5854(4) 0.2636(4) 0.8219(3) . 1. 0
O5 O2- 6 c 0.2436(4) 0.1512(4) 0.6625(2) . 1. 0
O6 O2- 6 c 0.4771(5) 0.2482(4) 0.0031(2) . 1. 0
O7 O2- 6 c 0.5533(4) 0.1117(5) 0.6553(2) . 1. 0
O8 O2- 6 c 0.0673(3) 0.1881(4) 0.7945(2) . 1. 0
O9 O2- 6 c 0.5950(4) 0.4975(3) 0.8878(2) . 1. 0
O10 O2- 6 c 0.7989(3) 0.2177(4) 0.7769(2) . 1. 0
Si1 Si4+ 6 c 0.1981(1) 0.1524(1) 0.7777(1) . 1. 0
Si2 Si4+ 6 c 0.4993(1) 0.3226(1) 0.8957(1) . 1. 0
Si3 Si4+ 6 c 0.6248(1) 0.1485(1) 0.7643(1) . 1. 0
Na1 Na1+ 6 c 0.3092(2) -.0168(2) 0.5899(1) . 0.428(1) 0
Ca1 Ca2+ 6 c 0.3092(2) -.0168(2) 0.5899(1) . 0.323(1) 0
Na2 Na1+ 6 c 0.279(1) -.031(1) 0.620(1) . 0.143(1) 0
Ca2 Ca2+ 6 c 0.279(1) -.031(1) 0.620(1) . 0.108(1) 0
Na3 Na1+ 6 c 0.5039(4) 0.3372(3) 0.6640(2) . 1. 0
Na4 Na1+ 6 c 0.5241(2) 0.3681(2) 0.1569(1) . 0.43(1) 0
Ca3 Ca2+ 6 c 0.5241(2) 0.3681(2) 0.1569(1) . 0.57(1) 0
Ca4 Ca2+ 3 b 0.8222(1) 0 0.8333 . 1. 0
Ca5 Ca2+ 3 a 0.3059(1) 0 0.3333 . 1. 0
loop_
_atom_site_aniso_label
_atom_site_aniso_type_symbol
_atom_site_aniso_U_11
_atom_site_aniso_U_22
_atom_site_aniso_U_33
_atom_site_aniso_U_12
_atom_site_aniso_U_13
_atom_site_aniso_U_23
O1 O2- 0.00557(42) 0.00413(52) 0.00454(31) 0.00207(26) 0.00125(17) 0.00249(34)
O2 O2- 0.00882(62) 0.00437(56) 0.00472(35) 0.00219(28) 0.00129(18) 0.00259(37)
O3 O2- 0.00360(32) 0.00408(35) 0.00305(17) 0.00185(28) -.00145(16) -.00070(19)
O4 O2- 0.00564(41) 0.0049(4) 0.00320(18) 0.00311(35) 0.00110(22) -.00056(22)
O5 O2- 0.00576(41) 0.00766(47) 0.00142(13) 0.00338(36) 0.00057(19) 0.00013(20)
O6 O2- 0.00719(48) 0.00794(41) 0.00143(13) 0.00409(37) -.00031(20) 0.00025(19)
O7 O2- 0.00822(42) 0.00879(54) 0.00145(13) 0.00429(45) -.00065(19) -.00074(23)
O8 O2- 0.00380(32) 0.00592(38) 0.00236(15) 0.00343(30) -.00016(17) 0.00008(19)
O9 O2- 0.00665(44) 0.00284(28) 0.00323(16) 0.00144(32) -.00114(24) -.00101(18)
O10 O2- 0.00257(27) 0.00582(41) 0.00340(17) 0.00177(29) 0.00064(18) 0.00000(23)
Si1 Si4+ 0.00209(10) 0.00244(11) 0.00133(4) 0.00096(9) -.00003(5) 0.00016(5)
Si2 Si4+ 0.00302(11) 0.00302(10) 0.00132(4) 0.00182(9) -.00031(6) -.00045(5)
Si3 Si4+ 0.00297(9) 0.00245(11) 0.00126(4) 0.00159(9) 0.00032(5) 0.00021(6)
Na1 Na1+ 0.00428(18) 0.00379(16) 0.00155(7) 0.00269(14) -.00092(8) -.00058(8)
Ca1 Ca2+ 0.00428(18) 0.00379(16) 0.00155(7) 0.00269(14) -.00092(8) -.00058(8)
Na2 Na1+ 0.02310(71) 0.00873(97) 0.00805(80) 0.01074(15) -.00113(10) 0.00006(73)
Ca2 Ca2+ 0.02310(71) 0.00873(97) 0.00805(80) 0.01074(15) -.00113(10) 0.00006(73)
Na3 Na1+ 0.00672(23) 0.01116(30) 0.00327(9) 0.00443(24) 0.00034(13) 0.00193(14)
Na4 Na1+ 0.00647(17) 0.01258(21) 0.00240(5) 0.00643(18) -.00092(8) -.00183(9)
Ca3 Ca2+ 0.00647(17) 0.01258(21) 0.00240(5) 0.00643(18) -.00092(8) -.00183(9)
Ca4 Ca2+ 0.00395(9) 0.00450(11) 0.00158(4) 0.00225(6) -.00009(3) -.00017(6)
Ca5 Ca2+ 0.00333(7) 0.00345(11) 0.00132(4) 0.00172(5) -.00007(3) -.00013(5)
#End of TTdata_66057-ICSD