
#(C) 2019 by FIZ Karlsruhe - Leibniz Institute for Information Infrastructure.  All rights reserved.
data_66052-ICSD
_database_code_ICSD 66052
_audit_creation_date 1991-07-10
_audit_update_record 2006-04-01
_chemical_name_systematic 'Tetrasodium tetracalcium cyclo-hexasilicate'
_chemical_formula_structural 'Na4 Ca4 (Si6 O18)'
_chemical_formula_sum 'Ca4 Na4 O18 Si6'
_chemical_name_structure_type Combeite(HT)
_exptl_crystal_density_diffrn 2.75
_cell_measurement_temperature 993.
_publ_section_title
'Structural study of the phase transition of Na4 Ca4 (Si6 O18)'
loop_
_citation_id
_citation_journal_full
_citation_year
_citation_journal_volume
_citation_page_first
_citation_page_last
_citation_journal_id_ASTM
primary 'Acta Crystallographica, Section B: Structural Science' 1990 46 125 131
ASBSDK
loop_
_publ_author_name
'Ohsato, H.'
'Takeuchi, Y.'
'Maki, I.'
_cell_length_a 10.588(1)
_cell_length_b 10.588(1)
_cell_length_c 13.222(2)
_cell_angle_alpha 90.
_cell_angle_beta 90.
_cell_angle_gamma 120.
_cell_volume 1283.68
_cell_formula_units_Z 3
_symmetry_space_group_name_H-M 'R -3 m H'
_symmetry_Int_Tables_number 166
_refine_ls_R_factor_all 0.0518
loop_
_symmetry_equiv_pos_site_id
_symmetry_equiv_pos_as_xyz
1 'x-y, -y, -z'
2 '-x, -x+y, -z'
3 'y, x, -z'
4 'x-y, x, -z'
5 'y, -x+y, -z'
6 '-x, -y, -z'
7 '-x+y, y, z'
8 'x, x-y, z'
9 '-y, -x, z'
10 '-x+y, -x, z'
11 '-y, x-y, z'
12 'x, y, z'
13 'x-y+2/3, -y+1/3, -z+1/3'
14 '-x+2/3, -x+y+1/3, -z+1/3'
15 'y+2/3, x+1/3, -z+1/3'
16 'x-y+2/3, x+1/3, -z+1/3'
17 'y+2/3, -x+y+1/3, -z+1/3'
18 '-x+2/3, -y+1/3, -z+1/3'
19 '-x+y+2/3, y+1/3, z+1/3'
20 'x+2/3, x-y+1/3, z+1/3'
21 '-y+2/3, -x+1/3, z+1/3'
22 '-x+y+2/3, -x+1/3, z+1/3'
23 '-y+2/3, x-y+1/3, z+1/3'
24 'x+2/3, y+1/3, z+1/3'
25 'x-y+1/3, -y+2/3, -z+2/3'
26 '-x+1/3, -x+y+2/3, -z+2/3'
27 'y+1/3, x+2/3, -z+2/3'
28 'x-y+1/3, x+2/3, -z+2/3'
29 'y+1/3, -x+y+2/3, -z+2/3'
30 '-x+1/3, -y+2/3, -z+2/3'
31 '-x+y+1/3, y+2/3, z+2/3'
32 'x+1/3, x-y+2/3, z+2/3'
33 '-y+1/3, -x+2/3, z+2/3'
34 '-x+y+1/3, -x+2/3, z+2/3'
35 '-y+1/3, x-y+2/3, z+2/3'
36 'x+1/3, y+2/3, z+2/3'
loop_
_atom_type_symbol
_atom_type_oxidation_number
O2- -2
Si4+ 4
Na1+ 1
Ca2+ 2
Na1+ 1
Ca2+ 2
loop_
_atom_site_label
_atom_site_type_symbol
_atom_site_symmetry_multiplicity
_atom_site_Wyckoff_symbol
_atom_site_fract_x
_atom_site_fract_y
_atom_site_fract_z
_atom_site_B_iso_or_equiv
_atom_site_occupancy
_atom_site_attached_hydrogens
O1 O2- 18 g 0.2474(5) 0 0.5 . 1. 0
O2 O2- 18 h 0.1188(3) 0.2376(6) 0.6727(3) . 1. 0
O3 O2- 18 h 0.2371(2) 0.4742(4) 0.5497(3) . 1. 0
Si1 Si4+ 18 h 0.1506(1) 0.3012(2) 0.5622(1) . 1. 0
Na1 Na1+ 6 c 0 0 0.2575(3) . 0.57(1) 0
Ca1 Ca2+ 6 c 0 0 0.2575(3) . 0.43(1) 0
Na2 Na1+ 9 e 0.5 0 0 . 0.67(1) 0
Na3 Na1+ 9 d 0.5 0 0.5 . 0.29(1) 0
Ca2 Ca2+ 9 d 0.5 0 0.5 . 0.71(1) 0
Ca3 Ca2+ 3 a 0 0 0 . 1. 0
loop_
_atom_site_aniso_label
_atom_site_aniso_type_symbol
_atom_site_aniso_U_11
_atom_site_aniso_U_22
_atom_site_aniso_U_33
_atom_site_aniso_U_12
_atom_site_aniso_U_13
_atom_site_aniso_U_23
O1 O2- 0.01832(70) 0.00819(54) 0.00709(31) 0.00410(27) 0.00189(17) 0.00379(35)
O2 O2- 0.01815(62) 0.01815(62) 0.00246(17) 0.01214(70) 0.00064(14) -.00064(27)
O3 O2- 0.01542(58) 0.01542(58) 0.00508(24) 0.01275(63) -.00009(14) 0.00009(27)
Si1 Si4+ 0.00491(9) 0.00491(9) 0.00237(5) 0.00209(11) -.00014(3) 0.00014(7)
Na1 Na1+ 0.01121(26) 0.01121(26) 0.00533(19) 0.00560(13) 0 0
Ca1 Ca2+ 0.01121(26) 0.01121(26) 0.00533(19) 0.00560(13) 0 0
Na2 Na1+ 0.01598(70) 0.0245(14) 0.00601(36) 0.01226(72) 0.00271(30) 0.00541(61)
Na3 Na1+ 0.0109(12) 0.01673(38) 0.00387(59) 0.00836(19) -.00133(8) -.00265(16)
Ca2 Ca2+ 0.0109(12) 0.01673(38) 0.00387(59) 0.00836(19) -.00133(8) -.00265(16)
Ca3 Ca2+ 0.00751(17) 0.00751(17) 0.00244(10) 0.00375(9) 0 0
#End of TTdata_66052-ICSD