
#(C) 2019 by FIZ Karlsruhe - Leibniz Institute for Information Infrastructure.  All rights reserved.
data_66054-ICSD
_database_code_ICSD 66054
_audit_creation_date 1991-07-10
_audit_update_record 2006-04-01
_chemical_name_systematic 'Tetrasodium tetracalcium cyclo-hexasilicate'
_chemical_formula_structural 'Na4 Ca4 (Si6 O18)'
_chemical_formula_sum 'Ca4 Na4 O18 Si6'
_chemical_name_structure_type Combeite(HT)
_exptl_crystal_density_diffrn 2.77
_cell_measurement_temperature 773.
_publ_section_title
'Structural study of the phase transition of Na4 Ca4 (Si6 O18)'
loop_
_citation_id
_citation_journal_full
_citation_year
_citation_journal_volume
_citation_page_first
_citation_page_last
_citation_journal_id_ASTM
primary 'Acta Crystallographica, Section B: Structural Science' 1990 46 125 131
ASBSDK
loop_
_publ_author_name
'Ohsato, H.'
'Takeuchi, Y.'
'Maki, I.'
_cell_length_a 10.561(1)
_cell_length_b 10.561(1)
_cell_length_c 13.199(3)
_cell_angle_alpha 90.
_cell_angle_beta 90.
_cell_angle_gamma 120.
_cell_volume 1274.92
_cell_formula_units_Z 3
_symmetry_space_group_name_H-M 'R -3 m H'
_symmetry_Int_Tables_number 166
_refine_ls_R_factor_all 0.0476
loop_
_symmetry_equiv_pos_site_id
_symmetry_equiv_pos_as_xyz
1 'x-y, -y, -z'
2 '-x, -x+y, -z'
3 'y, x, -z'
4 'x-y, x, -z'
5 'y, -x+y, -z'
6 '-x, -y, -z'
7 '-x+y, y, z'
8 'x, x-y, z'
9 '-y, -x, z'
10 '-x+y, -x, z'
11 '-y, x-y, z'
12 'x, y, z'
13 'x-y+2/3, -y+1/3, -z+1/3'
14 '-x+2/3, -x+y+1/3, -z+1/3'
15 'y+2/3, x+1/3, -z+1/3'
16 'x-y+2/3, x+1/3, -z+1/3'
17 'y+2/3, -x+y+1/3, -z+1/3'
18 '-x+2/3, -y+1/3, -z+1/3'
19 '-x+y+2/3, y+1/3, z+1/3'
20 'x+2/3, x-y+1/3, z+1/3'
21 '-y+2/3, -x+1/3, z+1/3'
22 '-x+y+2/3, -x+1/3, z+1/3'
23 '-y+2/3, x-y+1/3, z+1/3'
24 'x+2/3, y+1/3, z+1/3'
25 'x-y+1/3, -y+2/3, -z+2/3'
26 '-x+1/3, -x+y+2/3, -z+2/3'
27 'y+1/3, x+2/3, -z+2/3'
28 'x-y+1/3, x+2/3, -z+2/3'
29 'y+1/3, -x+y+2/3, -z+2/3'
30 '-x+1/3, -y+2/3, -z+2/3'
31 '-x+y+1/3, y+2/3, z+2/3'
32 'x+1/3, x-y+2/3, z+2/3'
33 '-y+1/3, -x+2/3, z+2/3'
34 '-x+y+1/3, -x+2/3, z+2/3'
35 '-y+1/3, x-y+2/3, z+2/3'
36 'x+1/3, y+2/3, z+2/3'
loop_
_atom_type_symbol
_atom_type_oxidation_number
O2- -2
Si4+ 4
Na1+ 1
Ca2+ 2
Na1+ 1
Ca2+ 2
loop_
_atom_site_label
_atom_site_type_symbol
_atom_site_symmetry_multiplicity
_atom_site_Wyckoff_symbol
_atom_site_fract_x
_atom_site_fract_y
_atom_site_fract_z
_atom_site_B_iso_or_equiv
_atom_site_occupancy
_atom_site_attached_hydrogens
O1 O2- 18 g 0.2483(5) 0 0.5 . 1. 0
O2 O2- 18 h 0.1183(2) 0.2366(4) 0.6730(2) . 1. 0
O3 O2- 18 h 0.2372(2) 0.4744(4) 0.5502(3) . 1. 0
Si1 Si4+ 18 h 0.1507(1) 0.3014(2) 0.5625(1) . 1. 0
Na1 Na1+ 6 c 0 0 0.2565(2) . 0.57(1) 0
Ca1 Ca2+ 6 c 0 0 0.2565(2) . 0.43(1) 0
Na2 Na1+ 9 e 0.5 0 0 . 0.67(1) 0
Na3 Na1+ 9 d 0.5 0 0.5 . 0.29(1) 0
Ca2 Ca2+ 9 d 0.5 0 0.5 . 0.71(1) 0
Ca3 Ca2+ 3 a 0 0 0 . 1. 0
loop_
_atom_site_aniso_label
_atom_site_aniso_type_symbol
_atom_site_aniso_U_11
_atom_site_aniso_U_22
_atom_site_aniso_U_33
_atom_site_aniso_U_12
_atom_site_aniso_U_13
_atom_site_aniso_U_23
O1 O2- 0.01789(64) 0.00720(46) 0.00607(25) 0.00360(23) 0.00165(15) 0.00330(29)
O2 O2- 0.01675(55) 0.01675(55) 0.00204(14) 0.01166(61) 0.00039(12) -.00039(24)
O3 O2- 0.01471(52) 0.01471(52) 0.00423(20) 0.01205(57) -.00008(12) 0.00008(24)
Si1 Si4+ 0.00442(8) 0.00442(8) 0.00202(4) 0.00185(9) -.00012(3) 0.00012(6)
Na1 Na1+ 0.00945(21) 0.00945(21) 0.00402(14) 0.00472(10) 0 0
Ca1 Ca2+ 0.00945(21) 0.00945(21) 0.00402(14) 0.00472(10) 0 0
Na2 Na1+ 0.01370(56) 0.0191(11) 0.00472(28) 0.00953(53) 0.00184(23) 0.00368(45)
Na3 Na1+ 0.00973(96) 0.01521(31) 0.00323(48) 0.00761(16) -.00123(6) -.00245(13)
Ca2 Ca2+ 0.00973(96) 0.01521(31) 0.00323(48) 0.00761(16) -.00123(6) -.00245(13)
Ca3 Ca2+ 0.00682(15) 0.00682(15) 0.00187(8) 0.00341(7) 0 0
#End of TTdata_66054-ICSD