
#(C) 2019 by FIZ Karlsruhe - Leibniz Institute for Information Infrastructure.  All rights reserved.
data_66092-ICSD
_database_code_ICSD 66092
_audit_creation_date 1994-01-19
_audit_update_record 2012-08-01
_chemical_name_systematic 'Tetrabarium disodium decaniobate'
_chemical_formula_structural 'Ba4 Na2 (Nb10 O30)'
_chemical_formula_sum 'Ba4 Na2 Nb10 O30'
_exptl_crystal_density_diffrn 5.38
_cell_measurement_temperature 294.
_publ_section_title

;
X-ray structural determination of the quasi-commensurate phase of barium
sodium niobate
;
loop_
_citation_id
_citation_journal_full
_citation_year
_citation_journal_volume
_citation_page_first
_citation_page_last
_citation_journal_id_ASTM
primary 'Journal of Physics: Condensed Matter' 1990 2 25 43 JCOMEL
loop_
_publ_author_name
'Labbe, P.'
'Leligny, H.'
'Raveau, B.'
'Schneck, J.'
'Toledano, J.C.'
_cell_length_a 35.1869(22)
_cell_length_b 17.6202(18)
_cell_length_c 7.9876(10)
_cell_angle_alpha 90.
_cell_angle_beta 90.
_cell_angle_gamma 90.
_cell_volume 4952.31
_cell_formula_units_Z 8
_symmetry_space_group_name_H-M 'B b m 2'
_symmetry_Int_Tables_number 40
_refine_ls_R_factor_all 0.031
loop_
_symmetry_equiv_pos_site_id
_symmetry_equiv_pos_as_xyz
1 '-x, y+1/2, z'
2 'x, -y+1/2, z'
3 '-x, -y, z'
4 'x, y, z'
5 '-x+1/2, y+1/2, z+1/2'
6 'x+1/2, -y+1/2, z+1/2'
7 '-x+1/2, -y, z+1/2'
8 'x+1/2, y, z+1/2'
loop_
_atom_type_symbol
_atom_type_oxidation_number
Nb5+ 5
Na1+ 1
Ba2+ 2
O2- -2
loop_
_atom_site_label
_atom_site_type_symbol
_atom_site_symmetry_multiplicity
_atom_site_Wyckoff_symbol
_atom_site_fract_x
_atom_site_fract_y
_atom_site_fract_z
_atom_site_B_iso_or_equiv
_atom_site_occupancy
_atom_site_attached_hydrogens
Nb1 Nb5+ 4 b 0.87573(3) 0.25 0.00926(9) 0.36 1. 0
Nb2 Nb5+ 4 b -.12525(3) 0.25 0.50696(9) 0.36(2) 1. 0
Nb3 Nb5+ 4 b -.12527(3) 0.75 0.00588(9) 0.34(2) 1. 0
Nb4 Nb5+ 4 b 0.87530(3) 0.75 0.50579(9) 0.32(2) 1. 0
Nb5 Nb5+ 8 c 0.96505(2) 0.35861(5) 0.00505(6) 0.33(2) 1. 0
Nb6 Nb5+ 8 c 0.96668(5) 0.35839(5) 0.50649(6) 0.36(2) 1. 0
Nb7 Nb5+ 8 c 0.21677(2) 0.85823(5) 0.00510(6) 0.37(2) 1. 0
Nb8 Nb5+ 8 c 0.21551(2) 0.85805(5) 0.50379(6) 0.34(2) 1. 0
Nb9 Nb5+ 8 c 0.07095(2) 0.43336(4) 0.00609(6) 0.31(2) 1. 0
Nb10 Nb5+ 8 c 0.07027(2) 0.43068(4) 0.50681(6) 0.28(2) 1. 0
Nb11 Nb5+ 8 c 0.32070(2) 0.93216(5) 0.00245(6) 0.38(2) 1. 0
Nb12 Nb5+ 8 c 0.32154(2) 0.93188(5) 0.50486(6) 0.38(2) 1. 0
Na1 Na1+ 4 a 0 0.5 0.24961(70) 0.85(11) 1. 0
Na2 Na1+ 4 a 0 0.5 0.75199(70) 0.85(11) 1. 0
Na3 Na1+ 8 c 0.24985(3) 0.00052(7) 0.2456(10) 0.82(11) 1. 0
Ba1 Ba2+ 8 c 0.87742(1) 0.42371(2) 0.25 0.85(1) 1. 0
Ba2 Ba2+ 8 c -.13013(1) 0.41921(2) 0.74843(10) 0.80(1) 1. 0
Ba3 Ba2+ 4 b 0.03867(1) 0.25 0.24639(12) 0.87(2) 1. 0
Ba4 Ba2+ 4 b 0.03878(1) 0.25 0.74996(13) 0.87(2) 1. 0
Ba5 Ba2+ 4 b 0.28835(1) 0.75 0.24853(15) 0.92(2) 1. 0
Ba6 Ba2+ 4 b 0.28954(1) 0.75 0.74905(15) 1.07(2) 1. 0
O1 O2- 8 c 0.9120(1) 0.3302(3) -.0451(7) 0.58(7) 1. 0
O2 O2- 8 c 0.9122(2) 0.3338(4) 0.5050(5) 0.52(8) 1. 0
O3 O2- 8 c 0.1627(2) 0.8312(4) 0.0055(5) 0.53(8) 1. 0
O4 O2- 8 c 0.1630(1) 0.8309(3) 0.4546(7) 0.69(7) 1. 0
O5 O2- 4 b 0.9827(3) 0.25 -.0098(8) 0.81(16) 1. 0
O6 O2- 4 b 0.9819(2) 0.25 0.4631(11) 0.64(9) 1. 0
O7 O2- 4 b 0.2333(3) 0.75 -.0165(10) 1.14(15) 1. 0
O8 O2- 4 b 0.2333(3) 0.75 0.5001(8) 0.50(12) 1. 0
O9 O2- 8 c 0.8752(1) 0.5334(4) -.0319(7) 0.76(7) 1. 0
O10 O2- 8 c 0.8754(2) 0.5350(4) 0.5038(5) 0.61(8) 1. 0
O11 O2- 8 c 0.9473(1) 0.4641(4) -.0451(9) 1.16(8) 1. 0
O12 O2- 8 c 0.9438(2) 0.4657(5) 0.4972(6) 0.85(11) 1. 0
O13 O2- 8 c 0.1968(2) 0.9640(6) -.0128(6) 1.08(12) 1. 0
O14 O2- 8 c 0.1965(2) 0.9638(4) 0.4651(8) 0.99(8) 1. 0
O15 O2- 8 c 0.9830(1) 0.6046(4) 0.0091(6) 0.47(8) 1. 0
O16 O2- 8 c 0.9819(1) 0.6092(3) 0.4480(8) 0.93(8) 1. 0
O17 O2- 8 c 0.2320(2) 0.1037(5) 0.0062(7) 0.99(11) 1. 0
O18 O2- 8 c 0.2322(1) 0.1062(3) 0.4516(8) 0.71(7) 1. 0
O19 O2- 8 c 0.9160(2) 0.6747(5) -.0037(5) 0.7(1) 1. 0
O20 O2- 8 c 0.9146(2) 0.6749(4) 0.4676(8) 1.01(8) 1. 0
O21 O2- 8 c 0.1657(1) 0.1747(3) -.0348(7) 0.58(6) 1. 0
O22 O2- 8 c 0.1661(2) 0.1762(5) 0.4881(6) 0.88(12) 1. 0
O23 O2- 8 c 0.9586(1) 0.3646(3) 0.2329(10) 1.24(7) 1. 0
O24 O2- 8 c 0.2098(1) 0.8616(3) 0.7343(10) 1.16(7) 1. 0
O25 O2- 8 c 0.9753(1) 0.3553(3) 0.7329(9) 0.97(6) 1. 0
O26 O2- 8 c 0.2248(1) 0.8579(3) 0.2334(11) 1.25(7) 1. 0
O27 O2- 8 c 0.9263(1) 0.5528(3) 0.2310(9) 1.02(6) 1. 0
O28 O2- 8 c 0.1734(1) 0.0684(3) 0.2359(11) 1.37(7) 1. 0
O29 O2- 8 c 0.9348(1) 0.5802(3) 0.7331(9) 1.19(6) 1. 0
O30 O2- 8 c 0.1847(1) 0.0626(3) 0.7322(10) 1.48(8) 1. 0
O31 O2- 4 b 0.8835(1) 0.25 0.2328(12) 0.87(9) 1. 0
O32 O2- 4 b -.1328(2) 0.25 0.7347(15) 0.87(8) 1. 0
O33 O2- 4 b 0.1298(2) 0.25 0.2359(20) 1.43(11) 1. 0
O34 O2- 4 b 0.1199(2) 0.25 0.7356(15) 1.36(11) 1. 0
#End of TTdata_66092-ICSD