
#(C) 2019 by FIZ Karlsruhe - Leibniz Institute for Information Infrastructure.  All rights reserved.
data_66315-ICSD
_database_code_ICSD 66315
_audit_creation_date 1993-01-06
_chemical_name_systematic 'Sodium hexafluoromanganate(III)'
_chemical_formula_structural 'Na3 (Mn F6)'
_chemical_formula_sum 'F6 Mn1 Na3'
_chemical_name_structure_type Perovskite-Na3AlF6
_exptl_crystal_density_diffrn 3.15
_publ_section_title 'Structure of trisodium hexafluoromanganate(III)'
loop_
_citation_id
_citation_journal_full
_citation_year
_citation_journal_volume
_citation_page_first
_citation_page_last
_citation_journal_id_ASTM
primary 'Acta Crystallographica, Section C: Crystal Structure Communications'
1992 48 6 8 ACSCEE
loop_
_publ_author_name
'Englich, U.'
'Massa, W.'
'Tressaud, A.'
_cell_length_a 5.4709(9)
_cell_length_b 5.6830(6)
_cell_length_c 8.0734(12)
_cell_angle_alpha 90.
_cell_angle_beta 88.964(7)
_cell_angle_gamma 90.
_cell_volume 250.97
_cell_formula_units_Z 2
_symmetry_space_group_name_H-M 'P 1 21/n 1'
_symmetry_Int_Tables_number 14
_refine_ls_R_factor_all 0.0152
loop_
_symmetry_equiv_pos_site_id
_symmetry_equiv_pos_as_xyz
1 '-x+1/2, y+1/2, -z+1/2'
2 '-x, -y, -z'
3 'x+1/2, -y+1/2, z+1/2'
4 'x, y, z'
loop_
_atom_type_symbol
_atom_type_oxidation_number
Mn3+ 3
Na1+ 1
F1- -1
loop_
_atom_site_label
_atom_site_type_symbol
_atom_site_symmetry_multiplicity
_atom_site_Wyckoff_symbol
_atom_site_fract_x
_atom_site_fract_y
_atom_site_fract_z
_atom_site_B_iso_or_equiv
_atom_site_occupancy
_atom_site_attached_hydrogens
Mn1 Mn3+ 2 a 0 0 0 . 1. 0
Na1 Na1+ 2 b 0 0 0.5 . 1. 0
Na2 Na1+ 4 e 0.50923(10) -.05464(10) 0.24988(7) . 1. 0
F1 F1- 4 e 0.1148(2) 0.0578(1) 0.2326(1) . 1. 0
F2 F1- 4 e -.2807(1) 0.1713(1) 0.0533(1) . 1. 0
F3 F1- 4 e 0.1632(2) 0.2795(1) -.0674(1) . 1. 0
loop_
_atom_site_aniso_label
_atom_site_aniso_type_symbol
_atom_site_aniso_U_11
_atom_site_aniso_U_22
_atom_site_aniso_U_33
_atom_site_aniso_U_12
_atom_site_aniso_U_13
_atom_site_aniso_U_23
Mn1 Mn3+ 0.0102(1) 0.0092(1) 0.0101(1) 0.0003(1) 0.0008(1) 0.0000(1)
Na1 Na1+ 0.0164(3) 0.0148(3) 0.0134(3) -.0017(3) -.0006(3) 0.0022(3)
Na2 Na1+ 0.0227(3) 0.0202(3) 0.0292(3) -.0036(2) 0.0006(2) 0.0013(2)
F1 F1- 0.02412(4) 0.0219(5) 0.0155(3) 0.0025(3) -.0003(3) 0.0005(3)
F2 F1- 0.0205(4) 0.0218(4) 0.0250(4) 0.0079(4) 0.0050(3) 0.0036(3)
F3 F1- 0.0228(4) 0.0195(4) 0.0262(4) -.0045(4) -.0035(3) 0.0053(3)
#End of TTdata_66315-ICSD