
#(C) 2019 by FIZ Karlsruhe - Leibniz Institute for Information Infrastructure.  All rights reserved.
data_66324-ICSD
_database_code_ICSD 66324
_audit_creation_date 1993-01-06
_audit_update_record 2015-02-01
_chemical_name_systematic 'Sodium tecto-borotrisilicate'
_chemical_formula_structural 'Na (B Si3 O8)'
_chemical_formula_sum 'B1 Na1 O8 Si3'
_chemical_name_structure_type Feldspar#-(TC)-Albite-NaAlSi3O8
_chemical_name_mineral 'Reedmergnerite low'
_exptl_crystal_density_diffrn 2.77
_publ_section_title

;
Tetrahedral-site occupancies in reedmergnerite and synthetic boron albite (Na
B Si3 O8)
;
loop_
_citation_id
_citation_journal_full
_citation_year
_citation_journal_volume
_citation_page_first
_citation_page_last
_citation_journal_id_ASTM
primary 'American Mineralogist' 1992 77 76 84 AMMIAY
loop_
_publ_author_name
'Fleet, M.E.'
_cell_length_a 7.8388(9)
_cell_length_b 12.373(1)
_cell_length_c 6.8082(7)
_cell_angle_alpha 93.324(8)
_cell_angle_beta 116.381(9)
_cell_angle_gamma 92.014(8)
_cell_volume 589.19
_cell_formula_units_Z 4
_symmetry_space_group_name_H-M 'C -1'
_symmetry_Int_Tables_number 2
_refine_ls_R_factor_all 0.019
loop_
_symmetry_equiv_pos_site_id
_symmetry_equiv_pos_as_xyz
1 '-x, -y, -z'
2 'x, y, z'
3 '-x+1/2, -y+1/2, -z'
4 'x+1/2, y+1/2, z'
loop_
_atom_type_symbol
_atom_type_oxidation_number
Na1+ 1
B3+ 3
Si4+ 4
B3+ 3
Si4+ 4
B3+ 3
Si4+ 4
B3+ 3
Si4+ 4
O2- -2
loop_
_atom_site_label
_atom_site_type_symbol
_atom_site_symmetry_multiplicity
_atom_site_Wyckoff_symbol
_atom_site_fract_x
_atom_site_fract_y
_atom_site_fract_z
_atom_site_B_iso_or_equiv
_atom_site_occupancy
_atom_site_attached_hydrogens
Na1 Na1+ 4 i 0.2582(1) 0.0075(1) 0.1330(1) . 1. 0
B1 B3+ 4 i 0.0121(2) 0.1616(1) 0.2215(2) . 0.85 0
Si1 Si4+ 4 i 0.0121(2) 0.1616(1) 0.2215(2) . 0.15 0
B2 B3+ 4 i 0.00585(4) 0.80969(3) 0.20966(5) . 0.05 0
Si2 Si4+ 4 i 0.00585(4) 0.80969(3) 0.20966(5) . 0.95 0
B3 B3+ 4 i 0.70278(4) 0.10177(2) 0.32033(5) . 0.05 0
Si3 Si4+ 4 i 0.70278(4) 0.10177(2) 0.32033(5) . 0.95 0
B4 B3+ 4 i 0.68471(4) 0.86450(2) 0.35438(5) . 0.05 0
Si4 Si4+ 4 i 0.68471(4) 0.86450(2) 0.35438(5) . 0.95 0
O1 O2- 4 i 0.0077(1) 0.1363(1) 0.0037(1) . 1. 0
O2 O2- 4 i 0.5931(1) 0.9813(1) 0.2757(1) . 1. 0
O3 O2- 4 i 0.8449(1) 0.0989(1) 0.2116(1) . 1. 0
O4 O2- 4 i 0.8161(1) 0.8349(1) 0.2336(1) . 1. 0
O5 O2- 4 i 0.0068(1) 0.2765(1) 0.2733(1) . 1. 0
O6 O2- 4 i 0.0290(1) 0.6798(1) 0.2060(1) . 1. 0
O7 O2- 4 i 0.1904(1) 0.1186(1) 0.3829(1) . 1. 0
O8 O2- 4 i 0.1921(1) 0.8680(1) 0.4171(1) . 1. 0
loop_
_atom_site_aniso_label
_atom_site_aniso_type_symbol
_atom_site_aniso_B_11
_atom_site_aniso_B_22
_atom_site_aniso_B_33
_atom_site_aniso_B_12
_atom_site_aniso_B_13
_atom_site_aniso_B_23
Na1 Na1+ 0.93(2) 1.90(2) 1.54(2) 0.21(2) 0.41(2) -.61(2)
B1 B3+ 0.59(4) 0.51(4) 0.48(4) 0.01(3) 0.27(3) 0.05(3)
Si1 Si4+ 0.59(4) 0.51(4) 0.48(4) 0.01(3) 0.27(3) 0.05(3)
B2 B3+ 0.47(1) 0.39(1) 0.34(1) 0.14(1) 0.20(1) 0.08(1)
Si2 Si4+ 0.47(1) 0.39(1) 0.34(1) 0.14(1) 0.20(1) 0.08(1)
B3 B3+ 0.43(1) 0.33(1) 0.43(1) 0.07(1) 0.18(1) 0.05(1)
Si3 Si4+ 0.43(1) 0.33(1) 0.43(1) 0.07(1) 0.18(1) 0.05(1)
B4 B3+ 0.42(1) 0.34(1) 0.42(1) 0.11(1) 0.21(1) 0.08(1)
Si4 Si4+ 0.42(1) 0.34(1) 0.42(1) 0.11(1) 0.21(1) 0.08(1)
O1 O2- 0.98(3) 0.67(3) 0.40(3) 0.15(2) 0.40(2) 0.12(2)
O2 O2- 0.51(3) 0.35(3) 0.72(3) 0.09(2) 0.23(2) 0.14(2)
O3 O2- 0.83(3) 0.71(3) 1.04(3) -.19(2) 0.68(3) -.12(2)
O4 O2- 0.76(3) 0.99(3) 0.96(3) 0.25(2) 0.61(3) 0.10(3)
O5 O2- 0.68(3) 0.41(3) 0.96(3) 0.01(2) 0.46(3) -.04(2)
O6 O2- 0.71(3) 0.45(3) 0.73(3) 0.24(2) 0.16(2) 0.09(2)
O7 O2- 0.81(3) 0.93(3) 0.43(3) 0.39(2) 0.12(2) 0.10(2)
O8 O2- 0.80(3) 0.85(3) 0.49(3) -.01(2) 0.10(2) -.05(2)
#End of TTdata_66324-ICSD