
#(C) 2019 by FIZ Karlsruhe - Leibniz Institute for Information Infrastructure.  All rights reserved.
data_66374-ICSD
_database_code_ICSD 66374
_audit_creation_date 1993-01-06
_audit_update_record 2016-02-01
_chemical_name_systematic 'Sodium strontium trio-triphosphide oxide (3/7/3/1)'
_chemical_formula_structural 'Na3 Sr7 (P3)3 O'
_chemical_formula_sum 'Na3 O1 P9 Sr7'
_chemical_name_structure_type Na3Eu7OP9
_exptl_crystal_density_diffrn 3.48
_cell_measurement_temperature 296.
_publ_section_title

;
Synthesis and structure of the oxide polyphosphides Na3M7(P3)3O (M= Sr and Eu)
;
loop_
_citation_id
_citation_journal_full
_citation_year
_citation_journal_volume
_citation_page_first
_citation_page_last
_citation_journal_id_ASTM
primary 'Journal of Alloys and Compounds' 1992 178 455 465 JALCEU
loop_
_publ_author_name
'Lin, J.'
'Hoenle, W.'
'von Schnering, H.G.'
_cell_length_a 8.809(4)
_cell_length_b 8.809(4)
_cell_length_c 13.876(6)
_cell_angle_alpha 90.
_cell_angle_beta 90.
_cell_angle_gamma 120.
_cell_volume 932.5
_cell_formula_units_Z 2
_symmetry_space_group_name_H-M 'P 63/m c m'
_symmetry_Int_Tables_number 193
_refine_ls_R_factor_all 0.058
loop_
_symmetry_equiv_pos_site_id
_symmetry_equiv_pos_as_xyz
1 '-x, -x+y, -z+1/2'
2 'x-y, -y, -z+1/2'
3 'y, x, -z+1/2'
4 '-x+y, -x, -z+1/2'
5 '-y, x-y, -z+1/2'
6 'x, y, -z+1/2'
7 'x, x-y, z+1/2'
8 '-x+y, y, z+1/2'
9 '-y, -x, z+1/2'
10 'x-y, x, z+1/2'
11 'y, -x+y, z+1/2'
12 '-x, -y, z+1/2'
13 'x, x-y, -z'
14 '-x+y, y, -z'
15 '-y, -x, -z'
16 'x-y, x, -z'
17 'y, -x+y, -z'
18 '-x, -y, -z'
19 '-x, -x+y, z'
20 'x-y, -y, z'
21 'y, x, z'
22 '-x+y, -x, z'
23 '-y, x-y, z'
24 'x, y, z'
loop_
_atom_type_symbol
_atom_type_oxidation_number
Sr2+ 2
Na1+ 1
Sr2+ 2
P1- -1
P2- -2
Na1+ 1
O2- -2
loop_
_atom_site_label
_atom_site_type_symbol
_atom_site_symmetry_multiplicity
_atom_site_Wyckoff_symbol
_atom_site_fract_x
_atom_site_fract_y
_atom_site_fract_z
_atom_site_B_iso_or_equiv
_atom_site_occupancy
_atom_site_attached_hydrogens
Sr1 Sr2+ 12 k 0.2432(1) 0 0.10092(8) . 0.8333 0
Na1 Na1+ 12 k 0.2432(1) 0 0.10092(8) . 0.1667 0
Sr2 Sr2+ 4 c 0.3333 0.6667 0.25 . 1. 0
P1 P1- 6 g 0.7261(5) 0 0.25 . 1. 0
P2 P2- 12 k 0.5876(3) 0 0.3854(2) . 1. 0
Na2 Na1+ 4 d 0.3333 0.6667 0 . 1. 0
O1 O2- 2 b 0 0 0 . 1. 0
loop_
_atom_site_aniso_label
_atom_site_aniso_type_symbol
_atom_site_aniso_U_11
_atom_site_aniso_U_22
_atom_site_aniso_U_33
_atom_site_aniso_U_12
_atom_site_aniso_U_13
_atom_site_aniso_U_23
Sr1 Sr2+ 0.0168(5) 0.0163(6) 0.0187(6) 0.0081(3) -.0003(5) 0
Na1 Na1+ 0.0168(5) 0.0163(6) 0.0187(6) 0.0081(3) -.0003(5) 0
Sr2 Sr2+ 0.0162(7) 0.0162(7) 0.0162(9) 0.0081(3) 0 0
P1 P1- 0.0179(17) 0.0203(24) 0.0162(19) 0.0101(12) 0 0
P2 P2- 0.0153(11) 0.0163(15) 0.0160(15) 0.0081(7) -.0002(11) 0
Na2 Na1+ 0.0292(29) 0.0292(29) 0.0214(40) 0.0146(14) 0 0
O1 O2- 0.0154(57) 0.0154(57) 0.025(10) 0.0077(28) 0 0
#End of TTdata_66374-ICSD