
#(C) 2019 by FIZ Karlsruhe - Leibniz Institute for Information Infrastructure.  All rights reserved.
data_66676-ICSD
_database_code_ICSD 66676
_audit_creation_date 1995-10-17
_chemical_name_systematic 'Sodium cadmium diindium tris(phosphate)'
_chemical_formula_structural 'Na Cd In2 (P O4)3'
_chemical_formula_sum 'Cd1 In2 Na1 O12 P3'
_exptl_crystal_density_diffrn 4.47
_publ_section_title

;
Combined x-ray Rietveld, infrared and raman study of a new synthetic variety
of alluaudite, NaCdIn2(PO4)3
;
loop_
_citation_id
_citation_journal_full
_citation_year
_citation_journal_volume
_citation_page_first
_citation_page_last
_citation_journal_id_ASTM
primary 'European Journal of Mineralogy' 1993 5 207 213 EJMIER
loop_
_publ_author_name
'Antenucci, D.'
'Miehe, G.'
'Tarte, P.'
'Schmahl, W.W.'
'Fransolet, A.M.'
_cell_length_a 12.5275(2)
_cell_length_b 12.9593(2)
_cell_length_c 6.5763(1)
_cell_angle_alpha 90.
_cell_angle_beta 115.340(1)
_cell_angle_gamma 90.
_cell_volume 964.92
_cell_formula_units_Z 4
_symmetry_space_group_name_H-M 'C 1 2/c 1'
_symmetry_Int_Tables_number 15
_refine_ls_R_factor_all 0.052
loop_
_symmetry_equiv_pos_site_id
_symmetry_equiv_pos_as_xyz
1 'x, -y, z+1/2'
2 '-x, -y, -z'
3 '-x, y, -z+1/2'
4 'x, y, z'
5 'x+1/2, -y+1/2, z+1/2'
6 '-x+1/2, -y+1/2, -z'
7 '-x+1/2, y+1/2, -z+1/2'
8 'x+1/2, y+1/2, z'
loop_
_atom_type_symbol
_atom_type_oxidation_number
Na1+ 1
Cd2+ 2
In3+ 3
P5+ 5
O2- -2
loop_
_atom_site_label
_atom_site_type_symbol
_atom_site_symmetry_multiplicity
_atom_site_Wyckoff_symbol
_atom_site_fract_x
_atom_site_fract_y
_atom_site_fract_z
_atom_site_B_iso_or_equiv
_atom_site_occupancy
_atom_site_attached_hydrogens
Na1 Na1+ 4 b 0.5 0 0 3.5(4) 0.94(2) 0
Cd1 Cd2+ 4 e 0 0.2619(2) 0.25 2.1(4) 0.956(8) 0
In1 In3+ 8 f 0.2802(1) 0.6498(1) 0.3689(3) 2.0(1) 0.989(7) 0
P1 P5+ 4 e 0 -.2875(5) 0.25 2.1(2) 1. 0
P2 P5+ 8 f 0.2441(4) -.1094(4) 0.137(1) 2.5(2) 1. 0
O1 O2- 8 f 0.453(1) 0.717(1) 0.540(2) 1.7(2) 1. 0
O2 O2- 8 f 0.093(1) 0.640(1) 0.235(2) 2.6(2) 1. 0
O3 O2- 8 f 0.331(1) 0.663(1) 0.098(2) 2.5(3) 1. 0
O4 O2- 8 f 0.123(1) 0.401(1) 0.317(2) 3.0(3) 1. 0
O5 O2- 8 f 0.227(1) 0.819(1) 0.316(1) 1.1(3) 1. 0
O6 O2- 8 f 0.305(1) 0.498(1) 0.354(2) 3.0(3) 1. 0
#End of TTdata_66676-ICSD