
#(C) 2019 by FIZ Karlsruhe - Leibniz Institute for Information Infrastructure.  All rights reserved.
data_66702-ICSD
_database_code_ICSD 66702
_audit_creation_date 1995-10-17
_audit_update_record 2016-02-01
_chemical_name_systematic
'Disodium hydroxotetranitronitrosoruthenate(III) dihydrate'
_chemical_formula_structural 'Na2 (Ru (N O2)4 (N O) (O H)) (H2 O)2'
_chemical_formula_sum 'H5 N5 Na2 O12 Ru1'
_exptl_crystal_density_diffrn 2.31
_cell_measurement_temperature 298.
_publ_section_title 'Na2 (Ru (N O2)4 (N O) (O H)) . 2(H2 O) - a redetermination'
loop_
_citation_id
_citation_journal_full
_citation_year
_citation_journal_volume
_citation_page_first
_citation_page_last
_citation_journal_id_ASTM
primary 'Acta Crystallographica, Section C: Crystal Structure Communications'
1992 48 982 984 ACSCEE
loop_
_publ_author_name
'Blake, A.J.'
'Gould, R.O.'
'Johnson, B.F.G.'
'Parsini, E.'
_cell_length_a 12.8765(6)
_cell_length_b 14.5867(9)
_cell_length_c 7.4478(4)
_cell_angle_alpha 90.
_cell_angle_beta 121.521(3)
_cell_angle_gamma 90.
_cell_volume 1192.48
_cell_formula_units_Z 4
_symmetry_space_group_name_H-M 'C 1 2/m 1'
_symmetry_Int_Tables_number 12
_refine_ls_R_factor_all 0.025
loop_
_symmetry_equiv_pos_site_id
_symmetry_equiv_pos_as_xyz
1 '-x, y, -z'
2 '-x, -y, -z'
3 'x, -y, z'
4 'x, y, z'
5 '-x+1/2, y+1/2, -z'
6 '-x+1/2, -y+1/2, -z'
7 'x+1/2, -y+1/2, z'
8 'x+1/2, y+1/2, z'
loop_
_atom_type_symbol
_atom_type_oxidation_number
Ru3+ 3
N2+ 2
N3+ 3
O2- -2
Na1+ 1
H1+ 1
loop_
_atom_site_label
_atom_site_type_symbol
_atom_site_symmetry_multiplicity
_atom_site_Wyckoff_symbol
_atom_site_fract_x
_atom_site_fract_y
_atom_site_fract_z
_atom_site_B_iso_or_equiv
_atom_site_occupancy
_atom_site_attached_hydrogens
Ru1 Ru3+ 4 i 0.26188(2) 0 0.00284(2) . 1. 0
N1 N2+ 4 i 0.42002(24) 0 0.1883(4) . 1. 0
N2 N3+ 8 j 0.23164(18) 0.10048(13) 0.1710(3) . 1. 0
N3 N3+ 8 j 0.28348(17) 0.10222(13) -.1716(3) . 1. 0
O1 O2- 4 i 0.08720(18) 0 -.2112(3) . 1. 0
O2 O2- 4 i 0.5214(3) 0 0.3097(4) . 1. 0
O3 O2- 8 j 0.13000(19) 0.11049(17) 0.1423(3) . 1. 0
O4 O2- 8 j 0.31505(20) 0.14796(11) 0.3020(3) . 1. 0
O5 O2- 8 j 0.21280(18) 0.11175(11) -.36157(22) . 1. 0
O6 O2- 8 j 0.3688(3) 0.15497(18) -.0857(3) . 1. 0
O7 O2- 8 j 0.0136(3) 0.23163(19) 0.3047(4) . 1. 0
Na1 Na1+ 4 f 0.25 0.25 0.5 . 1. 0
Na2 Na1+ 4 h 0 0.10996(7) 0.5 . 1. 0
H1 H1+ 4 i 0.046(5) 0 -.149(6) 0.06 1. 0
H2 H1+ 8 j 0.004(4) 0.2170(23) 0.191(5) 0.06 1. 0
H3 H1+ 8 j -.033(4) 0.279(3) 0.267(6) 0.06 1. 0
loop_
_atom_site_aniso_label
_atom_site_aniso_type_symbol
_atom_site_aniso_U_11
_atom_site_aniso_U_22
_atom_site_aniso_U_33
_atom_site_aniso_U_12
_atom_site_aniso_U_13
_atom_site_aniso_U_23
Ru1 Ru3+ 0.02058(14) 0.02128(14) 0.01715(13) 0 0.01012(9) 0
N1 N2+ 0.0263(10) 0.0341(11) 0.0284(10) 0 0.0098(9) 0
N2 N3+ 0.0405(9) 0.0325(8) 0.0279(7) 0.0041(7) 0.0202(7) -.0019(6)
N3 N3+ 0.0341(8) 0.0285(7) 0.0305(7) -.0018(7) 0.0198(7) 0.0039(6)
O1 O2- 0.0223(8) 0.0368(9) 0.0242(8) 0 0.0106(7) 0
O2 O2- 0.0288(12) 0.0878(17) 0.0448(11) 0 0.0014(10) 0
O3 O2- 0.0498(12) 0.0929(15) 0.0748(13) 0.0064(11) 0.0394(11) -.0328(11)
O4 O2- 0.0619(13) 0.0554(9) 0.0586(9) -.0173(9) 0.0347(10) -.0297(7)
O5 O2- 0.0490(9) 0.0613(9) 0.0367(6) -.0043(8) 0.0172(7) 0.0227(6)
O6 O2- 0.0937(19) 0.0974(15) 0.0485(9) -.0685(14) 0.0242(10) 0.0026(9)
O7 O2- 0.0698(14) 0.0543(7) 0.042(1) 0.0140(11) 0.0318(11) 0.0143(10)
Na1 Na1+ 0.0950(17) 0.0311(10) 0.0774(18) 0 0.0712(16) 0
Na2 Na1+ 0.0369(6) 0.0313(4) 0.0413(5) 0 0.0068(5) 0
#End of TTdata_66702-ICSD