
#(C) 2019 by FIZ Karlsruhe - Leibniz Institute for Information Infrastructure.  All rights reserved.
data_66742-ICSD
_database_code_ICSD 66742
_audit_creation_date 1995-10-17
_audit_update_record 1999-06-02
_chemical_name_systematic 'Calcium sodium tecto-alumosilicate *'
_chemical_formula_structural 'Ca Na11.52 (Al11.09 Si11.47 O48)'
_chemical_formula_sum 'Al11.09 Ca1 Na11.52 O48 Si11.47'
_chemical_name_structure_type Zeolite-A-frame
_chemical_name_mineral 'Zeolite A (Cs-exchanged, dehydrated)'
_exptl_crystal_density_diffrn 1.51
_cell_measurement_temperature 448.
_publ_section_title
'Dependence of cation sites of zeolite A upon the thermal treatment method'
loop_
_citation_id
_citation_journal_full
_citation_year
_citation_journal_volume
_citation_page_first
_citation_page_last
_citation_journal_id_ASTM
primary 'X-sen Bunseki no Shinpo' 1993 25 111 120 XBNSDA
loop_
_publ_author_name
'Kato, M.'
'Moriya, H.'
'Ohgushi, T.'
_cell_length_a 12.2942(5)
_cell_length_b 12.2942(5)
_cell_length_c 12.2942(5)
_cell_angle_alpha 90.
_cell_angle_beta 90.
_cell_angle_gamma 90.
_cell_volume 1858.24
_cell_formula_units_Z 1
_symmetry_space_group_name_H-M 'P m -3 m'
_symmetry_Int_Tables_number 221
_refine_ls_R_factor_all 0.033
loop_
_symmetry_equiv_pos_site_id
_symmetry_equiv_pos_as_xyz
1 'z, y, -x'
2 'y, x, -z'
3 'x, z, -y'
4 'z, x, -y'
5 'y, z, -x'
6 'x, y, -z'
7 'z, -y, x'
8 'y, -x, z'
9 'x, -z, y'
10 'z, -x, y'
11 'y, -z, x'
12 'x, -y, z'
13 '-z, y, x'
14 '-y, x, z'
15 '-x, z, y'
16 '-z, x, y'
17 '-y, z, x'
18 '-x, y, z'
19 '-z, -y, -x'
20 '-y, -x, -z'
21 '-x, -z, -y'
22 '-z, -x, -y'
23 '-y, -z, -x'
24 '-x, -y, -z'
25 '-z, -y, x'
26 '-y, -x, z'
27 '-x, -z, y'
28 '-z, -x, y'
29 '-y, -z, x'
30 '-x, -y, z'
31 '-z, y, -x'
32 '-y, x, -z'
33 '-x, z, -y'
34 '-z, x, -y'
35 '-y, z, -x'
36 '-x, y, -z'
37 'z, -y, -x'
38 'y, -x, -z'
39 'x, -z, -y'
40 'z, -x, -y'
41 'y, -z, -x'
42 'x, -y, -z'
43 'z, y, x'
44 'y, x, z'
45 'x, z, y'
46 'z, x, y'
47 'y, z, x'
48 'x, y, z'
loop_
_atom_type_symbol
_atom_type_oxidation_number
Al3+ 3
Si4+ 4
O2- -2
Na1+ 1
Ca2+ 2
loop_
_atom_site_label
_atom_site_type_symbol
_atom_site_symmetry_multiplicity
_atom_site_Wyckoff_symbol
_atom_site_fract_x
_atom_site_fract_y
_atom_site_fract_z
_atom_site_B_iso_or_equiv
_atom_site_occupancy
_atom_site_attached_hydrogens
Al1 Al3+ 24 k 0 0.1822(6) 0.3720(5) 1.81 0.4622 0
Si1 Si4+ 24 k 0 0.1822(6) 0.3720(5) 1.81 0.4778 0
O1 O2- 12 h 0 0.227(1) 0.5 2.8(6) 1. 0
O2 O2- 12 i 0 0.2900(8) 0.2900(8) 2.8(6) 1. 0
O3 O2- 24 m 0.1130(7) 0.1130(7) 0.339(1) 2.4(4) 1. 0
Na1 Na1+ 8 g 0.1939(7) 0.1939(7) 0.1939(7) 1.41(4) 0.84(2) 0
Na2 Na1+ 12 i 0 0.435(2) 0.435(2) 15.0(4) 0.40(5) 0
Ca1 Ca2+ 8 g 0.238(3) 0.238(3) 0.238(3) 3.7(2) 0.125 0
#End of TTdata_66742-ICSD