
#(C) 2019 by FIZ Karlsruhe - Leibniz Institute for Information Infrastructure.  All rights reserved.
data_66753-ICSD
_database_code_ICSD 66753
_audit_creation_date 1995-10-17
_chemical_name_systematic 'Sodium magnesium iron ferrogermanate oxide *'
_chemical_formula_structural 'Na2 (Mg3.6 Fe2.4) (Ge5.6 Fe0.4 O18) O2'
_chemical_formula_sum 'Fe2.8 Ge5.6 Mg3.6 Na2 O20'
_chemical_name_structure_type Aenigmatite-Na2TiFe5Si6O20
_exptl_crystal_density_diffrn 4.4
_publ_section_title
'Structure refinemant of Na2(Mg,Fe)6(Ge,Fe)6O18O2 a new aenigmatite-analog'
loop_
_citation_id
_citation_journal_full
_citation_year
_citation_journal_volume
_citation_page_first
_citation_page_last
_citation_journal_id_ASTM
primary 'Zeitschrift fuer Kristallographie' 1995 210 19 23 ZEKRDZ
loop_
_publ_author_name
'Barbier, J.'
_cell_length_a 8.994(1)
_cell_length_b 9.924(2)
_cell_length_c 10.495(1)
_cell_angle_alpha 64.30(2)
_cell_angle_beta 84.07(1)
_cell_angle_gamma 65.87(1)
_cell_volume 767.2
_cell_formula_units_Z 2
_symmetry_space_group_name_H-M 'P -1'
_symmetry_Int_Tables_number 2
_refine_ls_R_factor_all 0.046
loop_
_symmetry_equiv_pos_site_id
_symmetry_equiv_pos_as_xyz
1 '-x, -y, -z'
2 'x, y, z'
loop_
_atom_type_symbol
_atom_type_oxidation_number
Fe3+ 3
Mg2+ 2
Fe3+ 3
Mg2+ 2
Fe3+ 3
Mg2+ 2
Fe3+ 3
Mg2+ 2
Fe3+ 3
Mg2+ 2
Fe3+ 3
Na1+ 1
Ge4+ 4
Fe3+ 3
Ge4+ 4
Fe3+ 3
Ge4+ 4
Fe3+ 3
Ge4+ 4
Fe3+ 3
Ge4+ 4
O2- -2
loop_
_atom_site_label
_atom_site_type_symbol
_atom_site_symmetry_multiplicity
_atom_site_Wyckoff_symbol
_atom_site_fract_x
_atom_site_fract_y
_atom_site_fract_z
_atom_site_B_iso_or_equiv
_atom_site_occupancy
_atom_site_attached_hydrogens
Fe1 Fe3+ 1 d 0.5 0 0 . 0.799(4) 0
Mg1 Mg2+ 1 d 0.5 0 0 . 0.201(4) 0
Fe2 Fe3+ 1 g 0 0.5 0.5 . 0.798(4) 0
Mg2 Mg2+ 1 g 0 0.5 0.5 . 0.202(4) 0
Fe3 Fe3+ 2 i -.17203(7) 0.84918(7) -.54048(6) . 0.322(3) 0
Mg3 Mg2+ 2 i -.17203(7) 0.84918(7) -.54048(6) . 0.678(3) 0
Fe4 Fe3+ 2 i -.84840(8) 0.17209(8) 0.04833(7) . 0.257(3) 0
Mg4 Mg2+ 2 i -.84840(8) 0.17209(8) 0.04833(7) . 0.743(3) 0
Fe5 Fe3+ 2 i -.05845(11) 0.94501(10) -.34719(9) . 0.023(3) 0
Mg5 Mg2+ 2 i -.05845(11) 0.94501(10) -.34719(9) . 0.977(3) 0
Mg6 Mg2+ 2 i -.05997(11) 0.93780(11) -.84424(10) . 1. 0
Fe6 Fe3+ 2 i -.25805(5) 0.74219(4) 0.25388(4) . 1. 0
Na1 Na1+ 2 i -.38501(15) 0.63329(14) -.42518(12) . 1. 0
Na2 Na1+ 2 i -.37024(15) 0.61614(15) 0.04987(13) . 1. 0
Ge1 Ge4+ 2 i -.33645(3) 0.23381(3) 0.23662(3) . 0.864(4) 0
Fe7 Fe3+ 2 i -.33645(3) 0.23381(3) 0.23662(3) . 0.136(4) 0
Ge2 Ge4+ 2 i -.34427(3) 0.22964(3) 0.74385(3) . 0.954(4) 0
Fe8 Fe3+ 2 i -.34427(3) 0.22964(3) 0.74385(3) . 0.046(4) 0
Ge3 Ge4+ 2 i -.23492(3) 0.34249(3) 0.44096(3) . 0.895(4) 0
Fe9 Fe3+ 2 i -.23492(3) 0.34249(3) 0.44096(3) . 0.105(4) 0
Ge4 Ge4+ 2 i -.22591(3) 0.34164(3) -.07045(3) . 0.887(4) 0
Fe10 Fe3+ 2 i -.22591(3) 0.34164(3) -.07045(3) . 0.113(4) 0
Ge5 Ge4+ 2 i -.43575(3) 0.95041(3) -.30595(3) . 1. 0
Ge6 Ge4+ 2 i -.04439(3) 0.56649(3) -.20325(3) . 1. 0
O1 O2- 2 i -.16026(22) 0.05514(2) 0.28776(19) . 1. 0
O2 O2- 2 i -.16099(22) 0.05608(21) 0.78842(19) . 1. 0
O3 O2- 2 i -.27748(22) 0.96217(23) -.41361(19) . 1. 0
O4 O2- 2 i -.27396(22) 0.93531(21) -.91929(19) . 1. 0
O5 O2- 2 i -.38330(22) 0.86979(21) -.62887(19) . 1. 0
O6 O2- 2 i -.37959(22) 0.88572(22) -.12634(19) . 1. 0
O7 O2- 2 i -.51131(23) 0.20391(23) 0.30615(21) . 1. 0
O8 O2- 2 i -.48253(22) 0.78496(22) 0.17096(19) . 1. 0
O9 O2- 2 i -.38743(23) 0.31684(23) 0.55974(20) . 1. 0
O10 O2- 2 i -.37510(24) 0.33272(24) 0.05007(20) . 1. 0
O11 O2- 2 i -.05709(21) 0.16165(20) 0.48512(19) . 1. 0
O12 O2- 2 i -.05443(22) 0.16025(21) -.01413(20) . 1. 0
O13 O2- 2 i -.03158(24) 0.72411(22) -.18031(20) . 1. 0
O14 O2- 2 i -.06525(22) 0.72634(21) -.66094(20) . 1. 0
O15 O2- 2 i -.11284(22) 0.62010(21) -.37727(19) . 1. 0
O16 O2- 2 i -.13310(22) 0.61665(21) 0.13632(20) . 1. 0
O17 O2- 2 i -.19681(23) 0.51343(22) -.09627(20) . 1. 0
O18 O2- 2 i -.21584(22) 0.51749(22) 0.42641(20) . 1. 0
O19 O2- 2 i -.31434(25) 0.38081(22) -.22908(20) . 1. 0
O20 O2- 2 i -.33145(25) 0.38367(23) 0.28090(21) . 1. 0
loop_
_atom_site_aniso_label
_atom_site_aniso_type_symbol
_atom_site_aniso_U_11
_atom_site_aniso_U_22
_atom_site_aniso_U_33
_atom_site_aniso_U_12
_atom_site_aniso_U_13
_atom_site_aniso_U_23
Fe1 Fe3+ 0.00604(21) 0.00701(19) 0.00618(20) -.00151(17) 0.00128(16) -.00228(17)
Mg1 Mg2+ 0.00604(21) 0.00701(19) 0.00618(20) -.00151(17) 0.00128(16) -.00228(17)
Fe2 Fe3+ 0.00577(21) 0.00772(20) 0.00708(21) -.00174(17) 0.00074(17) -.00348(17)
Mg2 Mg2+ 0.00577(21) 0.00772(20) 0.00708(21) -.00174(17) 0.00074(17) -.00348(17)
Fe3 Fe3+ 0.00660(23) 0.00771(21) 0.00670(22) -.00255(19) 0.00153(18) -.00293(18)
Mg3 Mg2+ 0.00660(23) 0.00771(21) 0.00670(22) -.00255(19) 0.00153(18) -.00293(18)
Fe4 Fe3+ 0.00578(24) 0.00837(23) 0.00612(23) -.0024(2) 0.00100(19) -.00291(20)
Mg4 Mg2+ 0.00578(24) 0.00837(23) 0.00612(23) -.0024(2) 0.00100(19) -.00291(20)
Fe5 Fe3+ 0.00660(33) 0.00848(31) 0.00710(32) -.00315(27) 0.00205(26) -.00362(27)
Mg5 Mg2+ 0.00660(33) 0.00848(31) 0.00710(32) -.00315(27) 0.00205(26) -.00362(27)
Mg6 Mg2+ 0.00730(35) 0.00878(33) 0.00735(34) -.00344(29) 0.00284(28) -.00445(28)
Fe6 Fe3+ 0.00677(13) 0.00823(12) 0.00750(13) -.00244(10) 0.00098(10) -.00292(10)
Na1 Na1+ 0.01094(47) 0.01164(44) 0.01005(45) -.00387(38) 0.00264(37) -.00432(37)
Na2 Na1+ 0.01154(49) 0.01375(46) 0.01526(51) -.00449(40) 0.00243(40) -.00786(41)
Ge1 Ge4+ 0.0047(1) 0.00633(9) 0.00661(10) -.00150(8) 0.00115(8) -.00247(8)
Fe7 Fe3+ 0.0047(1) 0.00633(9) 0.00661(10) -.00150(8) 0.00115(8) -.00247(8)
Ge2 Ge4+ 0.00496(9) 0.00660(9) 0.00635(10) -.00191(8) 0.00170(7) -.00261(8)
Fe8 Fe3+ 0.00496(9) 0.00660(9) 0.00635(10) -.00191(8) 0.00170(7) -.00261(8)
Ge3 Ge4+ 0.00486(10) 0.00673(9) 0.00662(10) -.00193(8) 0.00146(8) -.00287(8)
Fe9 Fe3+ 0.00486(10) 0.00673(9) 0.00662(10) -.00193(8) 0.00146(8) -.00287(8)
Ge4 Ge4+ 0.00481(10) 0.00651(9) 0.00662(10) -.00164(8) 0.00124(8) -.00262(8)
Fe10 Fe3+ 0.00481(10) 0.00651(9) 0.00662(10) -.00164(8) 0.00124(8) -.00262(8)
Ge5 Ge4+ 0.00427(9) 0.00706(9) 0.00624(10) -.00163(8) 0.00103(7) -.00269(8)
Ge6 Ge4+ 0.0054(1) 0.00573(9) 0.0060(1) -.00153(8) 0.00109(7) -.00212(7)
O1 O2- 0.00580(65) 0.00811(63) 0.00843(67) -.00162(54) 0.00151(54) -.00297(55)
O2 O2- 0.00649(66) 0.00824(63) 0.00844(68) -.00164(55) 0.00157(54) -.00353(55)
O3 O2- 0.00604(66) 0.01319(70) 0.00824(67) -.00430(58) 0.00346(54) -.00540(58)
O4 O2- 0.00694(67) 0.00826(63) 0.00737(66) -.00183(55) 0.00108(53) -.00252(54)
O5 O2- 0.00458(63) 0.00808(62) 0.00914(69) -.00095(53) 0.00104(53) -.00320(55)
O6 O2- 0.00639(67) 0.01091(67) 0.00732(66) -.00218(57) 0.00091(56) -.00454(56)
O7 O2- 0.00729(69) 0.01129(69) 0.01388(78) -.00470(59) 0.00341(59) -.00686(62)
O8 O2- 0.00664(66) 0.00943(64) 0.00861(68) -.00343(56) 0.00248(54) -.00359(56)
O9 O2- 0.00790(71) 0.01260(71) 0.00839(70) -.00415(60) 0.00235(57) -.00249(59)
O10 O2- 0.00897(74) 0.01374(74) 0.00864(71) -.00341(63) 0.00310(58) -.00310(61)
O11 O2- 0.00569(64) 0.00668(59) 0.00728(65) -.00122(52) 0.00128(52) -.00279(52)
O12 O2- 0.00588(66) 0.00829(63) 0.01123(73) -.00126(54) 0.00109(55) -.00443(57)
O13 O2- 0.01085(73) 0.00860(64) 0.00869(69) -.00370(58) 0.00142(57) -.00431(56)
O14 O2- 0.00606(66) 0.00896(64) 0.00952(69) -.00220(55) 0.00068(54) -.00373(56)
O15 O2- 0.00753(68) 0.00733(62) 0.00699(65) -.00123(55) 0.00080(54) -.00268(53)
O16 O2- 0.00647(67) 0.00715(61) 0.00965(70) -.00021(54) 0.00085(55) -.00375(55)
O17 O2- 0.00915(71) 0.00842(64) 0.01221(75) -.00450(57) 0.00508(59) -.00527(58)
O18 O2- 0.00641(67) 0.00947(65) 0.01095(73) -.00258(56) 0.00062(56) -.00439(58)
O19 O2- 0.01345(80) 0.00843(65) 0.00987(72) -.00458(61) -.00087(61) -.00087(61)
O20 O2- 0.01217(79) 0.01015(68) 0.01044(74) -.00410(62) -.00128(61) -.00128(61)
#End of TTdata_66753-ICSD