
#(C) 2019 by FIZ Karlsruhe - Leibniz Institute for Information Infrastructure.  All rights reserved.
data_66877-ICSD
_database_code_ICSD 66877
_audit_creation_date 1997-11-10
_audit_update_record 2012-02-01
_chemical_name_systematic 'Sodium dimolybdo(V)molybdotriphosphate(V)'
_chemical_formula_structural 'Na (Mo3 P3 O16)'
_chemical_formula_sum 'Mo3 Na1 O16 P3'
_chemical_name_structure_type NaMo2P3O16
_exptl_crystal_density_diffrn 3.66
_cell_measurement_temperature 294.
_publ_section_title

;
A molybdenophosphate with a mixed valence of molybdenum, Mo(VI) - Mo(V): Na
Mo3 P3 O16
;
loop_
_citation_id
_citation_journal_full
_citation_year
_citation_journal_volume
_citation_page_first
_citation_page_last
_citation_journal_id_ASTM
primary 'Journal of Solid State Chemistry' 1991 95 168 175 JSSCBI
loop_
_publ_author_name
'Costentin, G.'
'Borel, M.M.'
'Grandin, A.'
'Leclaire, A.'
'Raveau, B.'
_cell_length_a 6.4023(6)
_cell_length_b 7.6097(10)
_cell_length_c 12.7395(14)
_cell_angle_alpha 80.031(11)
_cell_angle_beta 79.039(9)
_cell_angle_gamma 83.517(11)
_cell_volume 598.08
_cell_formula_units_Z 2
_symmetry_space_group_name_H-M 'P -1'
_symmetry_Int_Tables_number 2
_refine_ls_R_factor_all 0.032
loop_
_symmetry_equiv_pos_site_id
_symmetry_equiv_pos_as_xyz
1 '-x, -y, -z'
2 'x, y, z'
loop_
_atom_type_symbol
_atom_type_oxidation_number
Mo5+ 5
Mo6+ 6
P5+ 5
Na1+ 1
O2- -2
loop_
_atom_site_label
_atom_site_type_symbol
_atom_site_symmetry_multiplicity
_atom_site_Wyckoff_symbol
_atom_site_fract_x
_atom_site_fract_y
_atom_site_fract_z
_atom_site_B_iso_or_equiv
_atom_site_occupancy
_atom_site_attached_hydrogens
Mo1 Mo5+ 2 i 0.20382(7) 0.21539(6) 0.54109(4) 0.534(6) 1. 0
Mo2 Mo5+ 2 i 0.40953(8) 0.75135(6) 0.16255(4) 0.620(6) 1. 0
Mo3 Mo6+ 2 i 0.05866(7) 0.20623(6) 0.14284(4) 0.628(6) 1. 0
P1 P5+ 2 i 0.5726(2) 0.1656(2) 0.1026(1) 0.57(2) 1. 0
P2 P5+ 2 i 0.3077(2) 0.8543(2) 0.4210(1) 0.56(2) 1. 0
P3 P5+ 2 i 0.0645(2) 0.4818(2) 0.3166(1) 0.55(2) 1. 0
Na1 Na1+ 2 i 0.5981(5) 0.3333(5) 0.3316(3) 2.71(1) 1. 0
O1 O2- 2 i 0.1922(8) 0.0498(6) 0.6451(4) 1.71(9) 1. 0
O2 O2- 2 i -.1002(7) 0.2238(6) 0.5216(4) 1.16(7) 1. 0
O3 O2- 2 i 0.5179(6) 0.2567(5) 0.5220(3) 0.85(6) 1. 0
O4 O2- 2 i 0.3039(7) 0.0525(5) 0.4278(3) 1.10(7) 1. 0
O5 O2- 2 i 0.1366(6) 0.4249(5) 0.6224(3) 0.89(7) 1. 0
O6 O2- 2 i 0.2269(6) 0.4094(5) 0.3892(3) 0.73(6) 1. 0
O7 O2- 2 i 0.0872(8) 0.3130(7) 0.0163(4) 1.59(8) 1. 0
O8 O2- 2 i -.0206(6) 0.3298(5) 0.2735(3) 0.78(6) 1. 0
O9 O2- 2 i -.2587(6) 0.2028(5) 0.1665(3) 0.82(6) 1. 0
O10 O2- 2 i 0.1266(7) -.0145(6) 0.1344(4) 1.26(7) 1. 0
O11 O2- 2 i 0.3575(6) 0.2384(5) 0.1630(3) 0.85(6) 1. 0
O12 O2- 2 i 0.6057(7) 0.5952(6) 0.1821(4) 1.43(8) 1. 0
O13 O2- 2 i 0.3770(7) 0.7329(5) 0.0120(3) 1.06(7) 1. 0
O14 O2- 2 i 0.1603(7) 0.6064(6) 0.2160(3) 1.10(7) 1. 0
O15 O2- 2 i 0.3542(8) 0.8408(6) 0.3012(3) 1.52(8) 1. 0
O16 O2- 2 i 0.5772(6) 0.9652(5) 0.1015(3) 0.87(6) 1. 0
#End of TTdata_66877-ICSD