
#(C) 2019 by FIZ Karlsruhe - Leibniz Institute for Information Infrastructure.  All rights reserved.
data_66974-ICSD
_database_code_ICSD 66974
_audit_creation_date 1998-06-26
_chemical_name_systematic 'Sodium zinc hydroxide trihydrate'
_chemical_formula_structural 'Na Zn (O H)3 (H2 O)3'
_chemical_formula_sum 'H9 Na1 O6 Zn1'
_exptl_crystal_density_diffrn 2.17
_publ_section_title
'Synthese und Kristallstruktur von Na Zn (O H)3 . (H2 O) und Na Zn (O H)3'
loop_
_citation_id
_citation_journal_full
_citation_year
_citation_journal_volume
_citation_page_first
_citation_page_last
_citation_journal_id_ASTM
primary 'Zeitschrift fuer Anorganische und Allgemeine Chemie (1950) (DE)' 1998
624 25 29 ZAACAB
loop_
_publ_author_name
'Stahl, R.'
'Jacobs, H.'
_cell_length_a 3.344(1)
_cell_length_b 8.058(1)
_cell_length_c 11.138(2)
_cell_angle_alpha 93.13(2)
_cell_angle_beta 98.31(2)
_cell_angle_gamma 93.40(2)
_cell_volume 295.84
_cell_formula_units_Z 2
_symmetry_space_group_name_H-M 'P -1'
_symmetry_Int_Tables_number 2
_refine_ls_R_factor_all 0.0337
loop_
_symmetry_equiv_pos_site_id
_symmetry_equiv_pos_as_xyz
1 '-x, -y, -z'
2 'x, y, z'
loop_
_atom_type_symbol
_atom_type_oxidation_number
Zn2+ 2
Na1+ 1
O2- -2
H1+ 1
loop_
_atom_site_label
_atom_site_type_symbol
_atom_site_symmetry_multiplicity
_atom_site_Wyckoff_symbol
_atom_site_fract_x
_atom_site_fract_y
_atom_site_fract_z
_atom_site_B_iso_or_equiv
_atom_site_occupancy
_atom_site_attached_hydrogens
Zn1 Zn2+ 2 i 0.27066(5) 0.58992(2) 0.17432(2) . 1. 0
Na1 Na1+ 2 i 0.7114(2) 0.2130(1) 0.27801(7) . 1. 0
O1 O2- 2 i 0.7425(3) 0.4612(2) 0.1526(1) . 1. 0
O2 O2- 2 i 0.2644(5) 0.7694(2) 0.0634(1) . 1. 0
O3 O2- 2 i 0.3459(5) 0.6648(2) 0.3466(1) . 1. 0
O4 O2- 2 i 0.2849(5) 0.3379(2) 0.4059(1) . 1. 0
O5 O2- 2 i 0.1300(5) 0.0994(2) 0.1432(1) . 1. 0
O6 O2- 2 i 0.282(1) 0.0234(3) 0.6088(3) . 1. 0
H1 H1+ 2 i 0.71(1) 0.416(4) 0.099(3) 0.039(3) 1. 0
H2 H1+ 2 i 0.50(1) 0.796(4) 0.065(3) 0.039(3) 1. 0
H3 H1+ 2 i 0.14(1) 0.687(5) 0.361(3) 0.039(3) 1. 0
H4 H1+ 2 i 0.27(1) 0.425(5) 0.393(3) 0.039(3) 1. 0
H5 H1+ 2 i 0.40(1) 0.316(4) 0.479(3) 0.039(3) 1. 0
H6 H1+ 2 i 0.17(1) 0.018(4) 0.140(3) 0.039(3) 1. 0
H7 H1+ 2 i 0.08(1) 0.136(5) 0.087(3) 0.039(3) 1. 0
H8 H1+ 2 i 0.41(1) 0.134(4) 0.625(3) 0.039(3) 1. 0
H9 H1+ 2 i 0.22(1) 0.056(5) 0.658(3) 0.039(3) 1. 0
loop_
_atom_site_aniso_label
_atom_site_aniso_type_symbol
_atom_site_aniso_U_11
_atom_site_aniso_U_22
_atom_site_aniso_U_33
_atom_site_aniso_U_12
_atom_site_aniso_U_13
_atom_site_aniso_U_23
Zn1 Zn2+ 0.01207(8) 0.01880(9) 0.01841(9) 0.00221(5) 0.00129(6) 0.00217(6)
Na1 Na1+ 0.0192(3) 0.0301(4) 0.0254(4) 0.0001(3) 0.0025(3) -.0012(3)
O1 O2- 0.0124(4) 0.0203(5) 0.0223(5) 0.0017(3) 0.0025(4) -.0021(4)
O2 O2- 0.0275(6) 0.0226(5) 0.0258(6) 0.0025(5) 0.0029(5) 0.0072(4)
O3 O2- 0.0355(7) 0.0304(7) 0.0202(5) 0.0058(6) 0.0008(5) -.0018(5)
O4 O2- 0.0281(6) 0.0254(6) 0.0231(5) -.0012(5) -.0013(5) -.0014(4)
O5 O2- 0.0250(6) 0.0296(6) 0.0268(6) 0.0066(5) -.0115(5) -.0048(5)
O6 O2- 0.101(3) 0.042(1) 0.069(2) -.011(14) -.012(2) 0.015(1)
#End of TTdata_66974-ICSD