
#(C) 2019 by FIZ Karlsruhe - Leibniz Institute for Information Infrastructure.  All rights reserved.
data_66975-ICSD
_database_code_ICSD 66975
_audit_creation_date 1998-06-26
_chemical_name_systematic 'Sodium zinc hydroxide'
_chemical_formula_structural 'Na Zn (O H)3'
_chemical_formula_sum 'H3 Na1 O3 Zn1'
_exptl_crystal_density_diffrn 2.96
_publ_section_title
'Synthese und Kristallstruktur von Na Zn (O H)3 . (H2 O) und Na Zn (O H)3'
loop_
_citation_id
_citation_journal_full
_citation_year
_citation_journal_volume
_citation_page_first
_citation_page_last
_citation_journal_id_ASTM
primary 'Zeitschrift fuer Anorganische und Allgemeine Chemie (1950) (DE)' 1998
624 25 29 ZAACAB
loop_
_publ_author_name
'Stahl, R.'
'Jacobs, H.'
_cell_length_a 10.831(2)
_cell_length_b 10.831(2)
_cell_length_c 5.330(1)
_cell_angle_alpha 90.
_cell_angle_beta 90.
_cell_angle_gamma 90.
_cell_volume 625.27
_cell_formula_units_Z 8
_symmetry_space_group_name_H-M 'P 42 b c'
_symmetry_Int_Tables_number 106
_refine_ls_R_factor_all 0.0296
loop_
_symmetry_equiv_pos_site_id
_symmetry_equiv_pos_as_xyz
1 '-y+1/2, -x+1/2, z+1/2'
2 'y, -x, z+1/2'
3 '-x+1/2, y+1/2, z'
4 '-x, -y, z'
5 'y+1/2, x+1/2, z+1/2'
6 '-y, x, z+1/2'
7 'x+1/2, -y+1/2, z'
8 'x, y, z'
loop_
_atom_type_symbol
_atom_type_oxidation_number
Zn2+ 2
Na1+ 1
O2- -2
H1+ 1
loop_
_atom_site_label
_atom_site_type_symbol
_atom_site_symmetry_multiplicity
_atom_site_Wyckoff_symbol
_atom_site_fract_x
_atom_site_fract_y
_atom_site_fract_z
_atom_site_B_iso_or_equiv
_atom_site_occupancy
_atom_site_attached_hydrogens
Zn1 Zn2+ 8 c 0.05677(3) 0.30715(3) 0 . 1. 0
Na1 Na1+ 8 c 0.0929(1) 0.12036(13) 0.5343(5) . 1. 0
O1 O2- 8 c 0.3806(2) 0.1854(3) 0.0688(7) . 1. 0
O2 O2- 8 c 0.1702(3) 0.4319(2) 0.1322(8) . 1. 0
O3 O2- 8 c 0.0994(2) 0.1331(3) 0.0636(6) . 1. 0
H1 H1+ 8 c 0.386(7) 0.164(7) 0.20(2) 4.40(13) 1. 0
H2 H1+ 8 c 0.155(8) 0.469(8) 0.11(2) 4.40(13) 1. 0
H3 H1+ 8 c 0.175(7) 0.142(7) 0.08(1) 4.40(13) 1. 0
loop_
_atom_site_aniso_label
_atom_site_aniso_type_symbol
_atom_site_aniso_B_11
_atom_site_aniso_B_22
_atom_site_aniso_B_33
_atom_site_aniso_B_12
_atom_site_aniso_B_13
_atom_site_aniso_B_23
Zn1 Zn2+ 1.34(2) 1.17(2) 1.80(2) -.14(1) 0.02(3) 0.02(3)
Na1 Na1+ 1.62(6) 1.51(6) 3.1(1) 0.10(5) 0.03(8) -.09(8)
O1 O2- 1.4(1) 1.9(1) 1.9(2) -.20(9) 0.0(1) 0.0(1)
O2 O2- 1.6(1) 1.0(1) 2.1(2) 0.13(9) -.1(1) 0.1(1)
O3 O2- 1.2(1) 1.4(1) 2.7(2) 0.15(8) 0.1(1) 0.2(1)
#End of TTdata_66975-ICSD