
#(C) 2019 by FIZ Karlsruhe - Leibniz Institute for Information Infrastructure.  All rights reserved.
data_67317-ICSD
_database_code_ICSD 67317
_audit_creation_date 1990-12-27
_audit_update_record 2013-08-01
_chemical_name_systematic 'Sodium vanadium oxide (.56/2/5)'
_chemical_formula_structural 'Na.56 V2 O5'
_chemical_formula_sum 'Na0.56 O5 V2'
_chemical_name_structure_type NaxV2O5(mS30)
_exptl_crystal_density_diffrn 3.4
_publ_section_title 'Structure of Na0.56V2O5'
loop_
_citation_id
_citation_journal_full
_citation_year
_citation_journal_volume
_citation_page_first
_citation_page_last
_citation_journal_id_ASTM
primary 'Acta Crystallographica, Section C: Crystal Structure Communications'
1990 46 536 538 ACSCEE
loop_
_publ_author_name
'Kanke, Y.'
'Kato, K.'
'Takayama Muromachi, E.'
'Isobe, M.'
_cell_length_a 11.663(9)
_cell_length_b 3.6532(7)
_cell_length_c 8.92(1)
_cell_angle_alpha 90.
_cell_angle_beta 90.91(4)
_cell_angle_gamma 90.
_cell_volume 380.01
_cell_formula_units_Z 4
_symmetry_space_group_name_H-M 'C 1 2/m 1'
_symmetry_Int_Tables_number 12
_refine_ls_R_factor_all 0.056
loop_
_symmetry_equiv_pos_site_id
_symmetry_equiv_pos_as_xyz
1 '-x, y, -z'
2 '-x, -y, -z'
3 'x, -y, z'
4 'x, y, z'
5 '-x+1/2, y+1/2, -z'
6 '-x+1/2, -y+1/2, -z'
7 'x+1/2, -y+1/2, z'
8 'x+1/2, y+1/2, z'
loop_
_atom_type_symbol
_atom_type_oxidation_number
V4+ 4.72
O2- -2
Na1+ 1
loop_
_atom_site_label
_atom_site_type_symbol
_atom_site_symmetry_multiplicity
_atom_site_Wyckoff_symbol
_atom_site_fract_x
_atom_site_fract_y
_atom_site_fract_z
_atom_site_B_iso_or_equiv
_atom_site_occupancy
_atom_site_attached_hydrogens
V1 V4+ 4 i 0.93676(6) 0 0.16574(8) . 1. 0
V2 V4+ 4 i 0.23279(6) 0 0.16614(8) . 1. 0
O1 O2- 4 i 0.4015(3) 0 0.1367(4) . 1. 0
O2 O2- 4 i 0.0812(3) 0 0.0998(4) . 1. 0
O3 O2- 4 i 0.7614(3) 0 0.1188(4) . 1. 0
O4 O2- 4 i 0.9541(3) 0 0.3457(4) . 1. 0
O5 O2- 4 i 0.2185(3) 0 0.3451(4) . 1. 0
Na1 Na1+ 4 i 0.5993(8) 0 0.4803(6) . 0.56 0
loop_
_atom_site_aniso_label
_atom_site_aniso_type_symbol
_atom_site_aniso_U_11
_atom_site_aniso_U_22
_atom_site_aniso_U_33
_atom_site_aniso_U_12
_atom_site_aniso_U_13
_atom_site_aniso_U_23
V1 V4+ 0.0077(2) 0.0057(2) 0.0128(2) 0 -.0012(2) 0
V2 V4+ 0.0075(2) 0.0056(2) 0.0141(2) 0 0.0014(2) 0
O1 O2- 0.0075(9) 0.008(1) 0.021(1) 0 0.001(1) 0
O2 O2- 0.0054(9) 0.011(1) 0.019(1) 0 -.0006(9) 0
O3 O2- 0.008(1) 0.007(1) 0.024(1) 0 -.001(1) 0
O4 O2- 0.018(1) 0.022(2) 0.015(1) 0 -.001(1) 0
O5 O2- 0.017(1) 0.033(2) 0.014(1) 0 0.003(1) 0
Na1 Na1+ 0.110(6) 0.032(3) 0.025(2) 0 0.011(3) 0
#End of TTdata_67317-ICSD