
#(C) 2019 by FIZ Karlsruhe - Leibniz Institute for Information Infrastructure.  All rights reserved.
data_67378-ICSD
_database_code_ICSD 67378
_audit_creation_date 1990-12-27
_audit_update_record 2006-04-01
_chemical_name_systematic 'Trisodium dilead tris(tetrafluoroberyllate) fluoride'
_chemical_formula_structural 'Na3 Pb2 (Be F4)3 F'
_chemical_formula_sum 'Be3 F13 Na3 Pb2'
_chemical_name_structure_type Apatite#-(HE,P63/m)
_exptl_crystal_density_diffrn 4.55
_publ_section_title

;
Die Kristallstruktur von Na3 Pb2 (Be F4)3 F, einem Fluoroberyllat mit
Apatitstruktur
;
loop_
_citation_id
_citation_journal_full
_citation_year
_citation_journal_volume
_citation_page_first
_citation_page_last
_citation_journal_id_ASTM
primary 'Journal of the Less-Common Metals' 1990 158 123 130 JCOMAH
loop_
_publ_author_name
'Engel, G.'
'Fischer, U.'
_cell_length_a 9.531(3)
_cell_length_b 9.531(3)
_cell_length_c 7.028(2)
_cell_angle_alpha 90.
_cell_angle_beta 90.
_cell_angle_gamma 120.
_cell_volume 552.89
_cell_formula_units_Z 2
_symmetry_space_group_name_H-M 'P 63/m'
_symmetry_Int_Tables_number 176
_refine_ls_R_factor_all 0.061
loop_
_symmetry_equiv_pos_site_id
_symmetry_equiv_pos_as_xyz
1 '-x+y, -x, -z+1/2'
2 '-y, x-y, -z+1/2'
3 'x, y, -z+1/2'
4 'x-y, x, -z'
5 'y, -x+y, -z'
6 '-x, -y, -z'
7 'x-y, x, z+1/2'
8 'y, -x+y, z+1/2'
9 '-x, -y, z+1/2'
10 '-x+y, -x, z'
11 '-y, x-y, z'
12 'x, y, z'
loop_
_atom_type_symbol
_atom_type_oxidation_number
Na1+ 1
Pb2+ 2
Na1+ 1
Be2+ 2
F1- -1
loop_
_atom_site_label
_atom_site_type_symbol
_atom_site_symmetry_multiplicity
_atom_site_Wyckoff_symbol
_atom_site_fract_x
_atom_site_fract_y
_atom_site_fract_z
_atom_site_B_iso_or_equiv
_atom_site_occupancy
_atom_site_attached_hydrogens
Na1 Na1+ 4 f 0.3333 0.6667 0.0062(5) . 1. 0
Pb1 Pb2+ 6 h 0.24741(5) 0.01500(4) 0.25 . 0.67 0
Na2 Na1+ 6 h 0.24741(5) 0.01500(4) 0.25 . 0.33 0
Be1 Be2+ 6 h 0.3758(10) 0.4055(10) 0.25 . 1. 0
F1 F1- 6 h 0.4919(5) 0.3391(5) 0.25 . 1. 0
F2 F1- 6 h 0.4639(6) 0.5891(5) 0.25 . 1. 0
F3 F1- 12 i 0.2602(4) 0.3413(5) 0.0779(5) . 1. 0
F4 F1- 4 e 0 0 0.3450(36) . 0.5 0
loop_
_atom_site_aniso_label
_atom_site_aniso_type_symbol
_atom_site_aniso_U_11
_atom_site_aniso_U_22
_atom_site_aniso_U_33
_atom_site_aniso_U_12
_atom_site_aniso_U_13
_atom_site_aniso_U_23
Na1 Na1+ 0.00204(9) 0.00204(9) 0.0017(1) 0.00102(9) 0 0
Pb1 Pb2+ 0.00160(2) 0.00334(2) 0.00329(2) 0.00070(2) 0 0
Na2 Na1+ 0.00160(2) 0.00334(2) 0.00329(2) 0.00070(2) 0 0
Be1 Be2+ 0.0025(4) 0.0022(4) 0.0022(4) 0.0017(3) 0 0
F1 F1- 0.0045(3) 0.0031(2) 0.0044(3) 0.0030(2) 0 0
F2 F1- 0.0021(2) 0.0034(2) 0.0111(5) 0.0012(2) 0 0
F3 F1- 0.0117(3) 0.0048(2) 0.0032(2) 0.0056(2) -.0023(2) -.0038(2)
F4 F1- 0.0078(6) 0.0078(6) 0.0320(47) 0.0039(6) 0 0
#End of TTdata_67378-ICSD