
#(C) 2019 by FIZ Karlsruhe - Leibniz Institute for Information Infrastructure.  All rights reserved.
data_67460-ICSD
_database_code_ICSD 67460
_audit_creation_date 1992-08-20
_chemical_name_systematic 'Disodium manganese chromium fluoride'
_chemical_formula_structural 'Na2 Mn Cr F7'
_chemical_formula_sum 'Cr1 F7 Mn1 Na2'
_chemical_name_structure_type Mn2Sb2O7
_exptl_crystal_density_diffrn 3.29
_publ_section_title
'On trigonal weberites: structure refinement of Na2MnCrF7 and Na2MnGaF7'
loop_
_citation_id
_citation_journal_full
_citation_year
_citation_journal_volume
_citation_page_first
_citation_page_last
_citation_journal_id_ASTM
primary 'European Journal of Solid State and Inorganic Chemistry' 1988 25 435
447 EJSCE5
loop_
_publ_author_name
'Courbion, G.'
'Ferey, G.'
'Holler, H.'
'Babel, D.'
_cell_length_a 7.421(3)
_cell_length_b 7.421(3)
_cell_length_c 18.166(6)
_cell_angle_alpha 90.
_cell_angle_beta 90.
_cell_angle_gamma 120.
_cell_volume 866.39
_cell_formula_units_Z 6
_symmetry_space_group_name_H-M 'P 31 2 1'
_symmetry_Int_Tables_number 152
_refine_ls_R_factor_all 0.047
loop_
_symmetry_equiv_pos_site_id
_symmetry_equiv_pos_as_xyz
1 'x-y, -y, -z+2/3'
2 '-x, -x+y, -z+1/3'
3 'y, x, -z'
4 '-x+y, -x, z+2/3'
5 '-y, x-y, z+1/3'
6 'x, y, z'
loop_
_atom_type_symbol
_atom_type_oxidation_number
Na1+ 1
Mn2+ 2
Cr3+ 3
F1- -1
loop_
_atom_site_label
_atom_site_type_symbol
_atom_site_symmetry_multiplicity
_atom_site_Wyckoff_symbol
_atom_site_fract_x
_atom_site_fract_y
_atom_site_fract_z
_atom_site_B_iso_or_equiv
_atom_site_occupancy
_atom_site_attached_hydrogens
Na1 Na1+ 6 c 0.5037(10) 0.8736(8) 0.6688(2) . 1. 0
Na2 Na1+ 3 a 0.8504(15) 0 0.3333 . 1. 0
Na3 Na1+ 3 b 0.8528(13) 0 0.8333 . 1. 0
Mn1 Mn2+ 6 c 0.4979(3) 0.8370(3) 0.1703(5) . 1. 0
Cr1 Cr3+ 3 a 0.3196(2) 0 0.3333 . 1. 0
Cr2 Cr3+ 3 b 0.3398(2) 0 0.8333 . 1. 0
F1 F1- 6 c 0.7629(7) 0.2027(11) 0.6037(2) . 1. 0
F2 F1- 6 c 0.7885(11) 0.9284(7) 0.9461(2) . 1. 0
F3 F1- 6 c 0.5619(11) 0.4242(7) 0.0539(2) . 1. 0
F4 F1- 6 c 0.8075(7) 0.4302(7) 0.1901(2) . 1. 0
F5 F1- 6 c 0.0715(6) 0.3774(7) 0.2695(2) . 1. 0
F6 F1- 6 c 0.1945(7) 0.2487(7) 0.1450(2) . 1. 0
F7 F1- 6 c 0.0478(6) 0.4268(6) 0.87739(2) . 1. 0
loop_
_atom_site_aniso_label
_atom_site_aniso_type_symbol
_atom_site_aniso_beta_11
_atom_site_aniso_beta_22
_atom_site_aniso_beta_33
_atom_site_aniso_beta_12
_atom_site_aniso_beta_13
_atom_site_aniso_beta_23
Na1 Na1+ 0.0389(25) 0.0508(29) 0.0022(2) 0.0254(15) 0.0031(3) 0.0062(6)
Na2 Na1+ 0.0429(27) 0.0537(34) 0.0060(3) 0.0268(17) 0.0012(4) 0.0025(9)
Na3 Na1+ 0.0240(11) 0.0160(12) 0.0027(1) 0.0123(10) 0.0006(3) -.0014(3)
Mn1 Mn2+ 0.0046(2) 0.0040(2) 0.0009 0.0020(2) -.00015(6) -.00015(6)
Cr1 Cr3+ 0.0092(4) 0.0055(3) 0.0005 0.0027(2) 0.00005(5) 0.0001(1)
Cr2 Cr3+ 0.0045(3) 0.0033(3) 0.0013(3) 0.0016(2) 0.00007(5) 0.00015(1)
F1 F1- 0.0134(11) 0.0223(17) 0.0017(1) 0.0063(15) -.0024(3) -.0009(5)
F2 F1- 0.0243(18) 0.0165(12) 0.0016(1) 0.0130(14) 0.0003(5) 0.0017(3)
F3 F1- 0.0234(20) 0.0172(20) 0.0018(1) 0.0126(15) 0.0020(5) 0.0019(3)
F4 F1- 0.0088(12) 0.0160(13) 0.0027(1) 0.0089(11) -.0005(3) -.0008(3)
F5 F1- 0.0116(10) 0.0145(12) 0.0017(1) 0.0075(10) -.0017(3) -.0020(3)
F6 F1- 0.0100(12) 0.0147(12) 0.0027(11) 0.0091(10) -.0002(4) -.0009(3)
F7 F1- 0.0083(10) 0.0157(11) 0.0023(1) 0.008(1) 0.0004(3) 0.0011(3)
#End of TTdata_67460-ICSD