
#(C) 2019 by FIZ Karlsruhe - Leibniz Institute for Information Infrastructure.  All rights reserved.
data_67497-ICSD
_database_code_ICSD 67497
_audit_creation_date 1993-08-22
_audit_update_record 2008-08-01
_chemical_name_systematic 'Sodium barium nitride (1/3/1)'
_chemical_formula_structural 'Na Ba3 N'
_chemical_formula_sum 'Ba3 N1 Na1'
_chemical_name_structure_type BaNiO3
_exptl_crystal_density_diffrn 3.46
_cell_measurement_temperature 298.
_publ_section_title
'Das neue Subnitrid Na Ba3 N - eine Erweiterung der Alkalimetallsuboxid-Chemie'
loop_
_citation_id
_citation_journal_full
_citation_year
_citation_journal_volume
_citation_page_first
_citation_page_last
_citation_journal_id_ASTM
primary 'Angewandte Chemie' 1992 104 1505 1506 ANCEAD
loop_
_publ_author_name
'Rauch, P.E.'
'Simon, A.'
_cell_length_a 8.4414(6)
_cell_length_b 8.4414(6)
_cell_length_c 6.9817(8)
_cell_angle_alpha 90.
_cell_angle_beta 90.
_cell_angle_gamma 120.
_cell_volume 430.84
_cell_formula_units_Z 2
_symmetry_space_group_name_H-M 'P 63/m m c'
_symmetry_Int_Tables_number 194
_refine_ls_R_factor_all 0.033
loop_
_symmetry_equiv_pos_site_id
_symmetry_equiv_pos_as_xyz
1 'x, x-y, -z+1/2'
2 '-x+y, y, -z+1/2'
3 '-y, -x, -z+1/2'
4 '-x+y, -x, -z+1/2'
5 '-y, x-y, -z+1/2'
6 'x, y, -z+1/2'
7 '-x, -x+y, z+1/2'
8 'x-y, -y, z+1/2'
9 'y, x, z+1/2'
10 'x-y, x, z+1/2'
11 'y, -x+y, z+1/2'
12 '-x, -y, z+1/2'
13 '-x, -x+y, -z'
14 'x-y, -y, -z'
15 'y, x, -z'
16 'x-y, x, -z'
17 'y, -x+y, -z'
18 '-x, -y, -z'
19 'x, x-y, z'
20 '-x+y, y, z'
21 '-y, -x, z'
22 '-x+y, -x, z'
23 '-y, x-y, z'
24 'x, y, z'
loop_
_atom_type_symbol
_atom_type_oxidation_number
Ba0+ 0
Na0+ 0
N0+ 0
loop_
_atom_site_label
_atom_site_type_symbol
_atom_site_symmetry_multiplicity
_atom_site_Wyckoff_symbol
_atom_site_fract_x
_atom_site_fract_y
_atom_site_fract_z
_atom_site_B_iso_or_equiv
_atom_site_occupancy
_atom_site_attached_hydrogens
Ba1 Ba0+ 6 h 0.2878(2) 0.1439(1) 0.25 . 1. 0
Na1 Na0+ 2 c 0.3333 0.6667 0.25 . 1. 0
N1 N0+ 2 a 0 0 0 . 1. 0
loop_
_atom_site_aniso_label
_atom_site_aniso_type_symbol
_atom_site_aniso_U_11
_atom_site_aniso_U_22
_atom_site_aniso_U_33
_atom_site_aniso_U_12
_atom_site_aniso_U_13
_atom_site_aniso_U_23
Ba1 Ba0+ 0.033(1) 0.042(1) 0.038(1) 0.017(1) 0 0
Na1 Na0+ 0.055(4) 0.055(4) 0.056(5) 0.028(2) 0 0
N1 N0+ 0.039(6) 0.039(6) 0.019(6) 0.020(3) 0 0
#End of TTdata_67497-ICSD