
#(C) 2019 by FIZ Karlsruhe - Leibniz Institute for Information Infrastructure.  All rights reserved.
data_67515-ICSD
_database_code_ICSD 67515
_audit_creation_date 1993-08-22
_audit_update_record 2011-02-01
_chemical_name_systematic 'Sodium barium zirconium fluoride'
_chemical_formula_structural 'Na Ba Zr F7'
_chemical_formula_sum 'Ba1 F7 Na1 Zr1'
_chemical_name_structure_type NaBaZrF7
_exptl_crystal_density_diffrn 4.49
_publ_section_title 'X-Ray powder structure determination of Na Ba Zr F7'
loop_
_citation_id
_citation_journal_full
_citation_year
_citation_journal_volume
_citation_page_first
_citation_page_last
_citation_journal_id_ASTM
primary 'European Journal of Solid State and Inorganic Chemistry' 1992 29 1285
1293 EJSCE5
loop_
_publ_author_name
'Gao, Y.'
'Guery, J.'
'Jacoboni, C.'
_cell_length_a 9.118(1)
_cell_length_b 5.5563(6)
_cell_length_c 11.236(1)
_cell_angle_alpha 90.
_cell_angle_beta 90.
_cell_angle_gamma 90.
_cell_volume 569.24
_cell_formula_units_Z 4
_symmetry_space_group_name_H-M 'P n m a'
_symmetry_Int_Tables_number 62
_refine_ls_R_factor_all 0.0416
loop_
_symmetry_equiv_pos_site_id
_symmetry_equiv_pos_as_xyz
1 'x+1/2, y, -z+1/2'
2 'x, -y+1/2, z'
3 '-x+1/2, y+1/2, z+1/2'
4 '-x, -y, -z'
5 '-x+1/2, -y, z+1/2'
6 '-x, y+1/2, -z'
7 'x+1/2, -y+1/2, -z+1/2'
8 'x, y, z'
loop_
_atom_type_symbol
_atom_type_oxidation_number
Ba2+ 2
Zr4+ 4
Na1+ 1
F1- -1
loop_
_atom_site_label
_atom_site_type_symbol
_atom_site_symmetry_multiplicity
_atom_site_Wyckoff_symbol
_atom_site_fract_x
_atom_site_fract_y
_atom_site_fract_z
_atom_site_B_iso_or_equiv
_atom_site_occupancy
_atom_site_attached_hydrogens
Ba1 Ba2+ 4 c 0.5304(2) 0.25 0.3266(1) 1.28(4) 1. 0
Zr1 Zr4+ 4 c 0.7472(3) 0.75 0.1393(2) 0.92(5) 1. 0
Na1 Na1+ 4 c 0.8705(9) 0.75 0.4448(7) 0.1(2) 1. 0
F1 F1- 8 d 0.7833(8) 0.508(1) 0.2756(7) 1.9(1) 1. 0
F2 F1- 8 d 0.5714(9) 0.516(1) 0.1124(6) 1.9(1) 1. 0
F3 F1- 8 d 0.8273(7) 0.516(1) 0.0177(8) 1.9(1) 1. 0
F4 F1- 4 c 0.973(1) 0.75 0.1668(9) 1.9(1) 1. 0
#End of TTdata_67515-ICSD