
#(C) 2019 by FIZ Karlsruhe - Leibniz Institute for Information Infrastructure.  All rights reserved.
data_67513-ICSD
_database_code_ICSD 67513
_audit_creation_date 1993-08-22
_chemical_name_systematic
'Trisodium tripotassium phyllo-octaniobopentaphosphate'
_chemical_formula_structural 'Na3 K3 (Nb8 P5 O35)'
_chemical_formula_sum 'K3 Na3 Nb8 O35 P5'
_chemical_name_structure_type Na6Nb8P2O29P3O6
_exptl_crystal_density_diffrn 3.9
_publ_section_title 'A new series of phosphates with the Na6Nb8P5O35 structure'
loop_
_citation_id
_citation_journal_full
_citation_year
_citation_journal_volume
_citation_page_first
_citation_page_last
_citation_journal_id_ASTM
primary 'European Journal of Solid State and Inorganic Chemistry' 1992 29 1253
1261 EJSCE5
loop_
_publ_author_name
'Gueho, C.'
'Borel, M.M.'
'Grandin, A.'
'Leclaire, A.'
'Raveau, B.'
_cell_length_a 8.961(1)
_cell_length_b 8.961(1)
_cell_length_c 30.204(2)
_cell_angle_alpha 90.
_cell_angle_beta 90.
_cell_angle_gamma 120.
_cell_volume 2100.43
_cell_formula_units_Z 3
_symmetry_space_group_name_H-M 'R 3 2 H'
_symmetry_Int_Tables_number 155
_refine_ls_R_factor_all 0.034
loop_
_symmetry_equiv_pos_site_id
_symmetry_equiv_pos_as_xyz
1 '-x, -x+y, -z'
2 'x-y, -y, -z'
3 'y, x, -z'
4 '-x+y, -x, z'
5 '-y, x-y, z'
6 'x, y, z'
7 '-x+2/3, -x+y+1/3, -z+1/3'
8 'x-y+2/3, -y+1/3, -z+1/3'
9 'y+2/3, x+1/3, -z+1/3'
10 '-x+y+2/3, -x+1/3, z+1/3'
11 '-y+2/3, x-y+1/3, z+1/3'
12 'x+2/3, y+1/3, z+1/3'
13 '-x+1/3, -x+y+2/3, -z+2/3'
14 'x-y+1/3, -y+2/3, -z+2/3'
15 'y+1/3, x+2/3, -z+2/3'
16 '-x+y+1/3, -x+2/3, z+2/3'
17 '-y+1/3, x-y+2/3, z+2/3'
18 'x+1/3, y+2/3, z+2/3'
loop_
_atom_type_symbol
_atom_type_oxidation_number
Nb4+ 4.875
P5+ 5
K1+ 1
Na1+ 1
O2- -2
loop_
_atom_site_label
_atom_site_type_symbol
_atom_site_symmetry_multiplicity
_atom_site_Wyckoff_symbol
_atom_site_fract_x
_atom_site_fract_y
_atom_site_fract_z
_atom_site_B_iso_or_equiv
_atom_site_occupancy
_atom_site_attached_hydrogens
Nb1 Nb4+ 18 f 0.2345 -.00623(7) 0.06338(2) 0.372(6) 1. 0
Nb2 Nb4+ 6 c 0 0 0.23497(3) 0.274(9) 1. 0
P1 P5+ 6 c 0.3333 0.6667 0.07347(9) 0.52(3) 1. 0
P2 P5+ 9 e 0.4442(3) 0 0.5 0.41(4) 1. 0
K1 K1+ 9 d 0.5881(3) 0 0 2.27(6) 1. 0
Na1 Na1+ 9 e 0.7863(6) 0 0.5 2.0(1) 1. 0
O1 O2- 9 d 0.2373(9) 0 0 0.9(1) 1. 0
O2 O2- 18 f 0.2524(5) -.0318(5) 0.1313(1) 0.68(8) 1. 0
O3 O2- 18 f 0.4914(5) 0.1470(6) 0.0667(2) 0.78(8) 1. 0
O4 O2- 18 f 0.2763(6) -.2106(5) 0.0538(2) 0.91(8) 1. 0
O5 O2- 18 f 0.1842(5) 0.1707(5) 0.0684(2) 0.59(8) 1. 0
O6 O2- 18 f 0.1992(5) 0.1447(6) 0.1887(2) 0.73(8) 1. 0
O7 O2- 6 c 0.3333 0.6667 0.1226(3) 1.3(1) 1. 0
#End of TTdata_67513-ICSD