
#(C) 2019 by FIZ Karlsruhe - Leibniz Institute for Information Infrastructure.  All rights reserved.
data_67525-ICSD
_database_code_ICSD 67525
_audit_creation_date 1993-08-22
_chemical_name_systematic 'Rubidium disodium borate'
_chemical_formula_structural 'Rb Na2 (B O3)'
_chemical_formula_sum 'B1 Na2 O3 Rb1'
_chemical_name_structure_type KNa2BO3
_exptl_crystal_density_diffrn 3.27
_publ_section_title
'Preparation and Crystal Structure of CsNa2(BO3) and RbNa2(BO3)'
loop_
_citation_id
_citation_journal_full
_citation_year
_citation_journal_volume
_citation_page_first
_citation_page_last
_citation_journal_id_ASTM
primary 'Australian Journal of Chemistry' 1992 45 1427 1439 AJCHAS
loop_
_publ_author_name
'Schlaeger, M.'
'Hoppe, R.'
_cell_length_a 6.133(2)
_cell_length_b 5.680(2)
_cell_length_c 5.549(2)
_cell_angle_alpha 90.
_cell_angle_beta 90.
_cell_angle_gamma 90.
_cell_volume 193.3
_cell_formula_units_Z 2
_symmetry_space_group_name_H-M 'P m m n Z'
_symmetry_Int_Tables_number 59
_refine_ls_R_factor_all 0.06
loop_
_symmetry_equiv_pos_site_id
_symmetry_equiv_pos_as_xyz
1 'x+1/2, y+1/2, -z'
2 '-x, y+1/2, -z'
3 'x+1/2, -y, -z'
4 '-x, -y, -z'
5 '-x+1/2, -y+1/2, z'
6 'x, -y+1/2, z'
7 '-x+1/2, y, z'
8 'x, y, z'
loop_
_atom_type_symbol
_atom_type_oxidation_number
Rb1+ 1
Na1+ 1
B3+ 3
O2- -2
loop_
_atom_site_label
_atom_site_type_symbol
_atom_site_symmetry_multiplicity
_atom_site_Wyckoff_symbol
_atom_site_fract_x
_atom_site_fract_y
_atom_site_fract_z
_atom_site_B_iso_or_equiv
_atom_site_occupancy
_atom_site_attached_hydrogens
Rb1 Rb1+ 2 a 0.75 0.75 0.8870(2) . 1. 0
Na1 Na1+ 4 f 0.4818(4) 0.75 0.3632(5) . 1. 0
B1 B3+ 2 b 0.25 0.75 0.7870(19) . 1. 0
O1 O2- 2 b 0.25 0.75 0.0340(12) . 1. 0
O2 O2- 4 e 0.25 0.9589(7) 0.6551(8) . 1. 0
loop_
_atom_site_aniso_label
_atom_site_aniso_type_symbol
_atom_site_aniso_U_11
_atom_site_aniso_U_22
_atom_site_aniso_U_33
_atom_site_aniso_U_12
_atom_site_aniso_U_13
_atom_site_aniso_U_23
Rb1 Rb1+ 0.0187(4) 0.0160(4) 0.0157(4) 0 0 0
Na1 Na1+ 0.0162(11) 0.0161(11) 0.0123(13) 0 0.008(10) 0
B1 B3+ 0.0065(39) 0.0190(48) 0.0126(43) 0 0 0
O1 O2- 0.0237(35) 0.0158(32) 0.0108(28) 0 0 0
O2 O2- 0.0221(22) 0.0102(19) 0.0142(23) -.0003(16) 0 0
#End of TTdata_67525-ICSD