
#(C) 2019 by FIZ Karlsruhe - Leibniz Institute for Information Infrastructure.  All rights reserved.
data_67597-ICSD
_database_code_ICSD 67597
_audit_creation_date 1993-08-22
_chemical_name_systematic 'Disodium phyllo-diphosphatovanadate(IV)'
_chemical_formula_structural 'Na2 (P2 V O8)'
_chemical_formula_sum 'Na2 O8 P2 V1'
_chemical_name_structure_type Cd3(AsO4)2(mP52)
_exptl_crystal_density_diffrn 2.99
_cell_measurement_temperature 294.
_publ_section_title
'Na/2VP2O8: A Tetravalent Vanadium Diphosphate with a Layered Structure'
loop_
_citation_id
_citation_journal_full
_citation_year
_citation_journal_volume
_citation_page_first
_citation_page_last
_citation_journal_id_ASTM
primary 'Journal of Solid State Chemistry' 1992 101 154 160 JSSCBI
loop_
_publ_author_name
'Benhamada, L.'
'Grandin, A.'
'Borel, M.M.'
'Leclaire, A.'
'Raveau, B.'
_cell_length_a 7.7178(6)
_cell_length_b 13.3233(8)
_cell_length_c 6.287(3)
_cell_angle_alpha 90.
_cell_angle_beta 99.49(1)
_cell_angle_gamma 90.
_cell_volume 637.62
_cell_formula_units_Z 4
_symmetry_space_group_name_H-M 'P 1 21/c 1'
_symmetry_Int_Tables_number 14
_refine_ls_R_factor_all 0.025
loop_
_symmetry_equiv_pos_site_id
_symmetry_equiv_pos_as_xyz
1 'x, -y+1/2, z+1/2'
2 '-x, -y, -z'
3 '-x, y+1/2, -z+1/2'
4 'x, y, z'
loop_
_atom_type_symbol
_atom_type_oxidation_number
V4+ 4
P5+ 5
Na1+ 1
O2- -2
loop_
_atom_site_label
_atom_site_type_symbol
_atom_site_symmetry_multiplicity
_atom_site_Wyckoff_symbol
_atom_site_fract_x
_atom_site_fract_y
_atom_site_fract_z
_atom_site_B_iso_or_equiv
_atom_site_occupancy
_atom_site_attached_hydrogens
V1 V4+ 4 e 0.22827(3) 0.42441(2) 0.27003(4) . 1. 0
P1 P5+ 4 e 0.35999(5) 0.62441(3) 0.54265(6) . 1. 0
P2 P5+ 4 e 0.17255(5) 0.48123(3) 0.75090(6) . 1. 0
Na1 Na1+ 4 e 0.0735(1) 0.70519(8) 0.1615(2) . 1. 0
Na2 Na1+ 4 e 0.5190(1) 0.36430(8) 0.9288(2) . 1. 0
O1 O2- 4 e 0.3635(2) 0.5616(9) 0.3562(2) . 1. 0
O2 O2- 4 e 0.4659(2) 0.3591(1) 0.3033(2) . 1. 0
O3 O2- 4 e 0.1118(2) 0.3265(1) 0.1913(2) . 1. 0
O4 O2- 4 e 0.2299(2) 0.40891(9) 0.5899(2) . 1. 0
O5 O2- 4 e 0.0227(2) 0.5227(1) 0.2451(2) . 1. 0
O6 O2- 4 e 0.2803(2) 0.4643(1) -.0263(2) . 1. 0
O7 O2- 4 e 0.2184(2) 0.59215(9) 0.6856(2) . 1. 0
O8 O2- 4 e 0.2864(2) 0.73565(9) 0.4742(2) . 1. 0
loop_
_atom_site_aniso_label
_atom_site_aniso_type_symbol
_atom_site_aniso_beta_11
_atom_site_aniso_beta_22
_atom_site_aniso_beta_33
_atom_site_aniso_beta_12
_atom_site_aniso_beta_13
_atom_site_aniso_beta_23
V1 V4+ 0.00170(2) 0.00092(1) 0.00253(3) 0.00006(3) 0.00065(4) -.00043(3)
P1 P5+ 0.00178(4) 0.00075(1) 0.00289(5) 0.00002(4) 0.00039(8) 0.00023(5)
P2 P5+ 0.00161(4) 0.00091(1) 0.00209(5) 0.00005(4) 0.00082(7) 0.00014(5)
Na1 Na1+ 0.0057(1) 0.00306(5) 0.0077(2) -.0023(1) 0.0010(2) 0.0003(2)
Na2 Na1+ 0.0098(1) 0.00373(5) 0.0112(2) 0.0077(1) 0.0131(2) 0.0065(2)
O1 O2- 0.0032(1) 0.00129(5) 0.0035(2) -.0011(1) 0.0021(2) -.0013(2)
O2 O2- 0.0023(1) 0.00192(5) 0.0050(2) 0.0010(2) -.0007(3) -.0021(21)
O3 O2- 0.0040(1) 0.00144(5) 0.0091(2) -.0014(2) 0.0010(3) -.0023(2)
O4 O2- 0.0045(1) 0.00101(4) 0.0037(2) 0.0008(1) 0.0030(3) -.0002(1)
O5 O2- 0.0016(1) 0.00134(4) 0.0060(2) 0.0002(1) 0.0015(2) 0.0006(2)
O6 O2- 0.0025(1) 0.00274(6) 0.0021(2) 0.0010(2) 0.0000(2) 0.0008(2)
O7 O2- 0.0048(1) 0.00101(4) 0.0067(2) -.0012(1) 0.0073(3) 0.0008(2)
O8 O2- 0.0043(2) 0.00098(4) 0.0061(2) 0.0008(2) 0.0007(3) 0.0016(2)
#End of TTdata_67597-ICSD