
#(C) 2019 by FIZ Karlsruhe - Leibniz Institute for Information Infrastructure.  All rights reserved.
data_67600-ICSD
_database_code_ICSD 67600
_audit_creation_date 1993-08-22
_chemical_name_systematic 'Barium sodium fluorodizirconate'
_chemical_formula_structural 'Ba Na (Zr2 F11)'
_chemical_formula_sum 'Ba1 F11 Na1 Zr2'
_exptl_crystal_density_diffrn 4.59
_publ_section_title

;
Crystal structure of BaNaZr2F11: A Phase Recrystallizing from Fluorozirconate
Glasses
;
loop_
_citation_id
_citation_journal_full
_citation_year
_citation_journal_volume
_citation_page_first
_citation_page_last
_citation_journal_id_ASTM
primary 'Journal of Solid State Chemistry' 1992 101 18 25 JSSCBI
loop_
_publ_author_name
'Laval, J.P.'
'Abaouz, A.'
_cell_length_a 8.223(5)
_cell_length_b 8.223(5)
_cell_length_c 23.610(14)
_cell_angle_alpha 90.
_cell_angle_beta 90.
_cell_angle_gamma 90.
_cell_volume 1596.45
_cell_formula_units_Z 8
_symmetry_space_group_name_H-M 'I 41/a Z'
_symmetry_Int_Tables_number 88
_refine_ls_R_factor_all 0.055
loop_
_symmetry_equiv_pos_site_id
_symmetry_equiv_pos_as_xyz
1 '-y+3/4, x+3/4, -z+3/4'
2 'y+1/4, -x+3/4, -z+3/4'
3 'x, y+1/2, -z'
4 '-x, -y, -z'
5 'y+1/4, -x+1/4, z+1/4'
6 '-y+3/4, x+1/4, z+1/4'
7 '-x, -y+1/2, z'
8 'x, y, z'
9 '-y+1/4, x+1/4, -z+1/4'
10 'y+3/4, -x+1/4, -z+1/4'
11 'x+1/2, y, -z+1/2'
12 '-x+1/2, -y+1/2, -z+1/2'
13 'y+3/4, -x+3/4, z+3/4'
14 '-y+1/4, x+3/4, z+3/4'
15 '-x+1/2, -y, z+1/2'
16 'x+1/2, y+1/2, z+1/2'
loop_
_atom_type_symbol
_atom_type_oxidation_number
Zr4+ 4
Ba2+ 2
Na1+ 1
F1- -1
loop_
_atom_site_label
_atom_site_type_symbol
_atom_site_symmetry_multiplicity
_atom_site_Wyckoff_symbol
_atom_site_fract_x
_atom_site_fract_y
_atom_site_fract_z
_atom_site_B_iso_or_equiv
_atom_site_occupancy
_atom_site_attached_hydrogens
Zr1 Zr4+ 16 f 0.1391(2) 0.0354(2) 0.8747(1) . 1. 0
Ba1 Ba2+ 8 e 0 0.25 0.5359(1) . 1. 0
Na1 Na1+ 8 e 0 0.25 0.0093(6) . 1. 0
F1 F1- 8 e 0 0.25 0.3771(8) 1.4(3) 1. 0
F2 F1- 16 f 0.1880(19) 0.1383(20) 0.7962(6) 0.9(2) 1. 0
F3 F1- 16 f 0.0713(21) 0.0397(21) 0.1773(7) 1.2(3) 1. 0
F4 F1- 16 f 0.1164(15) 0.4429(15) 0.6251(7) 0.8(2) 1. 0
F5 F1- 16 f 0.2038(18) 0.3167(19) 0.1732(6) 0.7(3) 1. 0
F6 F1- 16 f 0.1810(21) 0.6343(21) 0.0489(7) 1.3(3) 1. 0
loop_
_atom_site_aniso_label
_atom_site_aniso_type_symbol
_atom_site_aniso_U_11
_atom_site_aniso_U_22
_atom_site_aniso_U_33
_atom_site_aniso_U_12
_atom_site_aniso_U_13
_atom_site_aniso_U_23
Zr1 Zr4+ 0.0038(8) 0.0039(8) 0.0120(8) -.0015(10) 0.0016(10) 0.0010(6)
Ba1 Ba2+ 0.0073(12) 0.0077(12) 0.0130(8) 0 0 0.0008(10)
Na1 Na1+ 0.016(9) 0.029(10) 0.018(6) 0 0 0.0017(8)
#End of TTdata_67600-ICSD