
#(C) 2019 by FIZ Karlsruhe - Leibniz Institute for Information Infrastructure.  All rights reserved.
data_67684-ICSD
_database_code_ICSD 67684
_audit_creation_date 1994-01-19
_audit_update_record 2012-02-01
_chemical_name_systematic 'Sodium gadolinium silicate fluoride oxide *'
_chemical_formula_structural '(Na1.19 Gd8.81) (Si O4)6 (F.38 O1.62)'
_chemical_formula_sum 'F0.38 Gd8.81 Na1.19 O25.62 Si6'
_chemical_name_structure_type Apatite#-(MO,P1121)
_chemical_name_mineral Britholite-(Gd)
_exptl_crystal_density_diffrn 6.29
_publ_section_title

;
Crystal structures of synthetic Na-REE-Si oxyapatites, synthetic monclinic
britholite
;
loop_
_citation_id
_citation_journal_full
_citation_year
_citation_journal_volume
_citation_page_first
_citation_page_last
_citation_journal_id_ASTM
primary 'Neues Jahrbuch fuer Mineralogie, Monatshefte' 1992 1992 311 319 NJMMAW
loop_
_publ_author_name
'Hughes, J.M.'
'Mariano, A.N.'
'Drexler, J.W.'
_cell_length_a 9.410(3)
_cell_length_b 9.413(1)
_cell_length_c 6.8740(9)
_cell_angle_alpha 90.
_cell_angle_beta 90.
_cell_angle_gamma 120.01(1)
_cell_volume 527.25
_cell_formula_units_Z 1
_symmetry_space_group_name_H-M 'P 1 1 21'
_symmetry_Int_Tables_number 4
_refine_ls_R_factor_all 0.019
loop_
_symmetry_equiv_pos_site_id
_symmetry_equiv_pos_as_xyz
1 '-x, -y, z+1/2'
2 'x, y, z'
loop_
_atom_type_symbol
_atom_type_oxidation_number
Si4+ 4
Gd3+ 3
Na1+ 1
Gd3+ 3
Na1+ 1
Gd3+ 3
Na1+ 1
Gd3+ 3
Na1+ 1
Gd3+ 3
Na1+ 1
O2- -2
F1- -1
O2- -2
loop_
_atom_site_label
_atom_site_type_symbol
_atom_site_symmetry_multiplicity
_atom_site_Wyckoff_symbol
_atom_site_fract_x
_atom_site_fract_y
_atom_site_fract_z
_atom_site_B_iso_or_equiv
_atom_site_occupancy
_atom_site_attached_hydrogens
Si1 Si4+ 2 a 0.0278(2) 0.6288(2) 0.25 0.38(3) 1. 0
Si2 Si4+ 2 a 0.3718(2) 0.3990(2) 0.253(2) 0.45(3) 1. 0
Si3 Si4+ 2 a 0.6007(2) 0.9720(2) 0.259(2) 0.43(3) 1. 0
Gd1 Gd3+ 2 a 0.33358(7) 0.66488(7) -.0003(1) 0.41(1) 0.636(2) 0
Na1 Na1+ 2 a 0.33358(7) 0.66488(7) -.0003(1) 0.41(1) 0.364(2) 0
Gd2 Gd3+ 2 a 0.33300(7) 0.66820(7) 0.5005(1) 0.88(1) 0.821(2) 0
Na2 Na1+ 2 a 0.33300(7) 0.66820(7) 0.5005(1) 0.88(1) 0.179(2) 0
Gd3 Gd3+ 2 a -.00843(4) 0.23358(4) 0.2516(4) 0.450(6) 0.985(1) 0
Na3 Na1+ 2 a -.00843(4) 0.23358(4) 0.2516(4) 0.450(6) 0.015(1) 0
Gd4 Gd3+ 2 a 0.23361(4) 0.24200(4) 0.7515(5) 0.444(6) 0.983(1) 0
Na4 Na1+ 2 a 0.23361(4) 0.24200(4) 0.7515(5) 0.444(6) 0.017(1) 0
Gd5 Gd3+ 2 a 0.24197(4) 0.00841(4) 0.2531(3) 0.426(6) 0.980(1) 0
Na5 Na1+ 2 a 0.24197(4) 0.00841(4) 0.2531(3) 0.426(6) 0.020(1) 0
O1 O2- 2 a 0.8306(6) 0.5146(7) 0.249(4) 1.04(9) 1. 0
O2 O2- 2 a 0.4854(6) 0.3164(6) 0.264(3) 0.93(9) 1. 0
O3 O2- 2 a 0.6840(7) 0.1689(6) 0.258(6) 1.09(9) 1. 0
O4 O2- 2 a 0.4016(6) 0.8762(6) 0.262(3) 0.88(9) 1. 0
O5 O2- 2 a 0.4739(6) 0.5971(6) 0.249(4) 0.88(9) 1. 0
O6 O2- 2 a 0.1252(6) 0.5261(6) 0.258(5) 0.71(8) 1. 0
O7 O2- 2 a 0.6405(7) 0.8971(7) 0.058(1) 0.5(1) 1. 0
O8 O2- 2 a 0.6796(8) 0.9217(8) 0.433(1) 0.7(1) 1. 0
O9 O2- 2 a 0.2555(8) 0.3590(8) 0.057(1) 0.7(1) 1. 0
O10 O2- 2 a 0.2422(8) 0.3214(8) 0.433(1) 0.7(1) 1. 0
O11 O2- 2 a 0.0794(8) 0.7571(8) 0.078(1) 0.6(1) 1. 0
O12 O2- 2 a 0.1042(8) 0.7460(8) 0.455(1) 0.9(1) 1. 0
F1 F1- 2 a 0.0007(6) 0.0004(7) 0.231(1) 1.40(9) 0.19 0
O13 O2- 2 a 0.0007(7) 0.0004(7) 0.231(1) 1.40(9) 0.81 0
#End of TTdata_67684-ICSD