
#(C) 2019 by FIZ Karlsruhe - Leibniz Institute for Information Infrastructure.  All rights reserved.
data_68468-ICSD
_database_code_ICSD 68468
_audit_creation_date 1991-07-10
_chemical_name_systematic 'Sodium zirconium diphosphate (1.3/.7/1)'
_chemical_formula_structural '(Na0.67 Zr0.33)2 (P2 O7)'
_chemical_formula_sum 'Na1.34 O7 P2 Zr0.66'
_exptl_crystal_density_diffrn 3.02
_publ_section_title 'Structure of (Na2/3Zr1/3)2P2O7'
loop_
_citation_id
_citation_journal_full
_citation_year
_citation_journal_volume
_citation_page_first
_citation_page_last
_citation_journal_id_ASTM
primary 'Acta Crystallographica, Section C: Crystal Structure Communications'
1990 46 2011 2013 ACSCEE
loop_
_publ_author_name
'Gali, S.'
'Byrappa, K.'
_cell_length_a 6.867(5)
_cell_length_b 12.345(4)
_cell_length_c 27.527(5)
_cell_angle_alpha 90.
_cell_angle_beta 90.
_cell_angle_gamma 90.
_cell_volume 2333.55
_cell_formula_units_Z 16
_symmetry_space_group_name_H-M 'F d d d Z'
_symmetry_Int_Tables_number 70
_refine_ls_R_factor_all 0.07
loop_
_symmetry_equiv_pos_site_id
_symmetry_equiv_pos_as_xyz
1 'x+3/4, y+3/4, -z'
2 'x+3/4, -y, z+3/4'
3 '-x, y+3/4, z+3/4'
4 '-x, -y, -z'
5 '-x+1/4, -y+1/4, z'
6 '-x+1/4, y, -z+1/4'
7 'x, -y+1/4, -z+1/4'
8 'x, y, z'
9 'x+3/4, y+1/4, -z+1/2'
10 'x+3/4, -y+1/2, z+1/4'
11 '-x, y+1/4, z+1/4'
12 '-x, -y+1/2, -z+1/2'
13 '-x+1/4, -y+3/4, z+1/2'
14 '-x+1/4, y+1/2, -z+3/4'
15 'x, -y+3/4, -z+3/4'
16 'x, y+1/2, z+1/2'
17 'x+1/4, y+3/4, -z+1/2'
18 'x+1/4, -y, z+1/4'
19 '-x+1/2, y+3/4, z+1/4'
20 '-x+1/2, -y, -z+1/2'
21 '-x+3/4, -y+1/4, z+1/2'
22 '-x+3/4, y, -z+3/4'
23 'x+1/2, -y+1/4, -z+3/4'
24 'x+1/2, y, z+1/2'
25 'x+1/4, y+1/4, -z'
26 'x+1/4, -y+1/2, z+3/4'
27 '-x+1/2, y+1/4, z+3/4'
28 '-x+1/2, -y+1/2, -z'
29 '-x+3/4, -y+3/4, z'
30 '-x+3/4, y+1/2, -z+1/4'
31 'x+1/2, -y+3/4, -z+1/4'
32 'x+1/2, y+1/2, z'
loop_
_atom_type_symbol
_atom_type_oxidation_number
P5+ 5
Na1+ 1
Zr4+ 4
O2- -2
loop_
_atom_site_label
_atom_site_type_symbol
_atom_site_symmetry_multiplicity
_atom_site_Wyckoff_symbol
_atom_site_fract_x
_atom_site_fract_y
_atom_site_fract_z
_atom_site_B_iso_or_equiv
_atom_site_occupancy
_atom_site_attached_hydrogens
P1 P5+ 32 h 0.7842(2) 0.4816(1) 0.0521(1) . 1. 0
Na1 Na1+ 32 h 0.2758(4) 0.5171(3) 0.0756(1) . 0.6667 0
Zr1 Zr4+ 32 h 0.2758(4) 0.5171(3) 0.0756(1) . 0.3333 0
O1 O2- 32 h 0.9326(8) 0.5360(4) 0.0843(2) 0.0157(12) 1. 0
O2 O2- 32 h 0.7249(7) 0.5427(4) 0.0064(2) 0.0132(12) 1. 0
O3 O2- 32 h 0.6007(7) 0.4461(4) 0.0806(2) 0.0122(13) 1. 0
O4 O2- 16 g 0.875 0.375 0.0282(2) 0.0069(14) 1. 0
loop_
_atom_site_aniso_label
_atom_site_aniso_type_symbol
_atom_site_aniso_U_11
_atom_site_aniso_U_22
_atom_site_aniso_U_33
_atom_site_aniso_U_12
_atom_site_aniso_U_13
_atom_site_aniso_U_23
P1 P5+ 0.0094(10) 0.0068(11) 0.0061(9) 0.0025(6) 0.0000(6) -.0004(6)
Na1 Na1+ 0.0581(18) 0.0633(20) 0.0588(16) 0.0037(11) 0.0014(11) -.0037(11)
Zr1 Zr4+ 0.0581(18) 0.0633(20) 0.0588(16) 0.0037(11) 0.0014(11) -.0037(11)
#End of TTdata_68468-ICSD