
#(C) 2019 by FIZ Karlsruhe - Leibniz Institute for Information Infrastructure.  All rights reserved.
data_68502-ICSD
_database_code_ICSD 68502
_audit_creation_date 1991-07-10
_chemical_name_systematic 'Trisodium hydrogensilicate hydrate'
_chemical_formula_structural 'Na3 ((O H) Si O3) (H2 O)'
_chemical_formula_sum 'H3 Na3 O5 Si1'
_exptl_crystal_density_diffrn 2.37
_cell_measurement_temperature 296.
_publ_section_title 'Structure of trisodium hydrogenorthosilicate monohydrate'
loop_
_citation_id
_citation_journal_full
_citation_year
_citation_journal_volume
_citation_page_first
_citation_page_last
_citation_journal_id_ASTM
primary 'Acta Crystallographica, Section C: Crystal Structure Communications'
1990 46 1365 1368 ACSCEE
loop_
_publ_author_name
'Schmid, R.L.'
'Felsche, J.'
_cell_length_a 7.898(1)
_cell_length_b 5.960(1)
_cell_length_c 11.142(1)
_cell_angle_alpha 90.
_cell_angle_beta 105.57(1)
_cell_angle_gamma 90.
_cell_volume 505.23
_cell_formula_units_Z 4
_symmetry_space_group_name_H-M 'P 1 21/c 1'
_symmetry_Int_Tables_number 14
_refine_ls_R_factor_all 0.019
loop_
_symmetry_equiv_pos_site_id
_symmetry_equiv_pos_as_xyz
1 'x, -y+1/2, z+1/2'
2 '-x, -y, -z'
3 '-x, y+1/2, -z+1/2'
4 'x, y, z'
loop_
_atom_type_symbol
_atom_type_oxidation_number
Si4+ 4
Na1+ 1
O2- -2
H1+ 1
loop_
_atom_site_label
_atom_site_type_symbol
_atom_site_symmetry_multiplicity
_atom_site_Wyckoff_symbol
_atom_site_fract_x
_atom_site_fract_y
_atom_site_fract_z
_atom_site_B_iso_or_equiv
_atom_site_occupancy
_atom_site_attached_hydrogens
Si1 Si4+ 4 e 0.6907(1) 0.2087(1) 0.3647(1) . 1. 0
Na1 Na1+ 4 e 0.2500(1) 0.0102(2) 0.3342(1) . 1. 0
Na2 Na1+ 4 e 0.3990(1) 0.3071(2) 0.5667(1) . 1. 0
Na3 Na1+ 4 e 0.9772(1) -.2439(2) 0.4391(1) . 1. 0
O1 O2- 4 e 0.4902(2) 0.2715(3) 0.3826(1) . 1. 0
O2 O2- 4 e 0.7694(2) 0.0138(3) 0.4636(1) . 1. 0
O3 O2- 4 e 0.8098(2) 0.4343(3) 0.3914(1) . 1. 0
O4 O2- 4 e 0.6631(2) 0.1359(3) 0.2198(1) . 1. 0
O5 O2- 4 e 0.0739(2) 0.3471(3) 0.2789(2) . 1. 0
H1 H1+ 4 e 0.553(4) 0.887(6) 0.156(3) 1.3(7) 1. 0
H2 H1+ 4 e -.001(4) 0.398(5) 0.316(3) 1.0(7) 1. 0
H3 H1+ 4 e 0.143(4) 0.466(6) 0.285(3) 0.8(7) 1. 0
loop_
_atom_site_aniso_label
_atom_site_aniso_type_symbol
_atom_site_aniso_B_11
_atom_site_aniso_B_22
_atom_site_aniso_B_33
_atom_site_aniso_B_12
_atom_site_aniso_B_13
_atom_site_aniso_B_23
Si1 Si4+ 0.56(2) 0.63(2) 0.63(2) -.03(2) 0.17(1) 0.01(2)
Na1 Na1+ 1.46(3) 1.31(3) 0.97(3) -.01(3) 0.40(2) -.14(3)
Na2 Na1+ 1.20(3) 1.25(3) 1.47(3) -.23(3) 0.46(2) -.32(3)
Na3 Na1+ 1.04(3) 1.07(4) 1.35(3) -.12(3) 0.07(2) -.03(3)
O1 O2- 0.83(5) 1.22(6) 1.29(5) 0.25(5) 0.45(4) 0.26(5)
O2 O2- 0.93(5) 0.87(6) 0.82(5) 0.03(5) 0.14(4) 0.16(5)
O3 O2- 0.83(5) 0.80(6) 1.01(5) -.20(5) 0.30(4) -.08(5)
O4 O2- 1.09(5) 0.98(6) 0.71(5) 0.01(5) 0.16(4) -.15(5)
O5 O2- 1.44(5) 1.28(6) 1.90(6) -.15(5) 0.82(4) -.22(6)
#End of TTdata_68502-ICSD