
#(C) 2019 by FIZ Karlsruhe - Leibniz Institute for Information Infrastructure.  All rights reserved.
data_68507-ICSD
_database_code_ICSD 68507
_audit_creation_date 1991-07-10
_chemical_name_systematic 'Tetrasodium 20-oxononagermanate'
_chemical_formula_structural 'Na4 (Ge9 O20)'
_chemical_formula_sum 'Ge9 Na4 O20'
_chemical_name_structure_type Na4Ge9O20
_exptl_crystal_density_diffrn 4.24
_publ_section_title
'Refinement of the structure of sodium enneagermanate (Na4Ge9O20)'
loop_
_citation_id
_citation_journal_full
_citation_year
_citation_journal_volume
_citation_page_first
_citation_page_last
_citation_journal_id_ASTM
primary 'Acta Crystallographica, Section C: Crystal Structure Communications'
1990 46 1202 1204 ACSCEE
loop_
_publ_author_name
'Fleet, M.E.'
_cell_length_a 15.0263(9)
_cell_length_b 15.0263(9)
_cell_length_c 7.3971(9)
_cell_angle_alpha 90.
_cell_angle_beta 90.
_cell_angle_gamma 90.
_cell_volume 1670.19
_cell_formula_units_Z 4
_symmetry_space_group_name_H-M 'I 41/a Z'
_symmetry_Int_Tables_number 88
_refine_ls_R_factor_all 0.026
loop_
_symmetry_equiv_pos_site_id
_symmetry_equiv_pos_as_xyz
1 '-y+3/4, x+3/4, -z+3/4'
2 'y+1/4, -x+3/4, -z+3/4'
3 'x, y+1/2, -z'
4 '-x, -y, -z'
5 'y+1/4, -x+1/4, z+1/4'
6 '-y+3/4, x+1/4, z+1/4'
7 '-x, -y+1/2, z'
8 'x, y, z'
9 '-y+1/4, x+1/4, -z+1/4'
10 'y+3/4, -x+1/4, -z+1/4'
11 'x+1/2, y, -z+1/2'
12 '-x+1/2, -y+1/2, -z+1/2'
13 'y+3/4, -x+3/4, z+3/4'
14 '-y+1/4, x+3/4, z+3/4'
15 '-x+1/2, -y, z+1/2'
16 'x+1/2, y+1/2, z+1/2'
loop_
_atom_type_symbol
_atom_type_oxidation_number
Na1+ 1
Ge4+ 4
O2- -2
loop_
_atom_site_label
_atom_site_type_symbol
_atom_site_symmetry_multiplicity
_atom_site_Wyckoff_symbol
_atom_site_fract_x
_atom_site_fract_y
_atom_site_fract_z
_atom_site_B_iso_or_equiv
_atom_site_occupancy
_atom_site_attached_hydrogens
Na1 Na1+ 16 f 0.08666(9) 0.05566(8) 0.16931(21) . 1. 0
Ge1 Ge4+ 4 a 0 0.25 0.125 . 1. 0
Ge2 Ge4+ 16 f 0.13657(2) 0.04603(2) 0.70097(4) . 1. 0
Ge3 Ge4+ 16 f 0.09568(2) 0.21773(2) 0.49080(4) . 1. 0
O1 O2- 16 f 0.09204(12) 0.21194(13) 0.24544(25) . 1. 0
O2 O2- 16 f 0.08005(12) 0.22213(13) 0.74549(25) . 1. 0
O3 O2- 16 f 0.18871(12) 0.07324(13) 0.90670(26) . 1. 0
O4 O2- 16 f 0.02503(12) 0.04537(12) 0.75873(27) . 1. 0
O5 O2- 16 f 0.15385(13) 0.10846(12) 0.50551(27) . 1. 0
loop_
_atom_site_aniso_label
_atom_site_aniso_type_symbol
_atom_site_aniso_B_11
_atom_site_aniso_B_22
_atom_site_aniso_B_33
_atom_site_aniso_B_12
_atom_site_aniso_B_13
_atom_site_aniso_B_23
Na1 Na1+ 1.863(54) 0.954(47) 3.214(71) -.158(39) 0.719(50) 0.091(46)
Ge1 Ge4+ 0.542(11) 0.542(11) 0.498(19) 0 0 0
Ge2 Ge4+ 0.476(10) 0.482(9) 0.669(9) 0.055(7) 0.017(8) 0.005(8)
Ge3 Ge4+ 0.493(9) 0.477(9) 0.558(9) 0.019(7) 0.012(8) 0.001(8)
O1 O2- 0.545(63) 0.915(71) 0.943(67) 0.153(51) -.061(61) 0.029(58)
O2 O2- 0.569(62) 0.600(61) 0.796(66) -.062(47) -.060(53) 0.049(56)
O3 O2- 0.525(64) 1.123(72) 0.801(72) -.151(53) -.015(54) -.113(57)
O4 O2- 0.540(62) 0.656(64) 1.349(77) 0.111(48) 0.147(60) 0.076(61)
O5 O2- 1.010(68) 0.545(61) 0.812(66) 0.217(50) 0.215(59) 0.151(56)
#End of TTdata_68507-ICSD