
#(C) 2019 by FIZ Karlsruhe - Leibniz Institute for Information Infrastructure.  All rights reserved.
data_68512-ICSD
_database_code_ICSD 68512
_audit_creation_date 1991-07-10
_chemical_name_systematic 'Trisodium dihydrogentriarsenate'
_chemical_formula_structural 'Na3 (H2 As3 O10)'
_chemical_formula_sum 'H2 As3 Na3 O10'
_exptl_crystal_density_diffrn 3.36
_publ_section_title 'Structure d'un triarseniate: Na3H2As3O10'
loop_
_citation_id
_citation_journal_full
_citation_year
_citation_journal_volume
_citation_page_first
_citation_page_last
_citation_journal_id_ASTM
primary 'Acta Crystallographica, Section C: Crystal Structure Communications'
1990 46 1185 1188 ACSCEE
loop_
_publ_author_name
'Driss, A.'
'Jouini, T.'
_cell_length_a 10.860(3)
_cell_length_b 9.323(3)
_cell_length_c 18.270(5)
_cell_angle_alpha 90.
_cell_angle_beta 103.00(2)
_cell_angle_gamma 90.
_cell_volume 1802.39
_cell_formula_units_Z 8
_symmetry_space_group_name_H-M 'C 1 2/c 1'
_symmetry_Int_Tables_number 15
_refine_ls_R_factor_all 0.035
loop_
_symmetry_equiv_pos_site_id
_symmetry_equiv_pos_as_xyz
1 'x, -y, z+1/2'
2 '-x, -y, -z'
3 '-x, y, -z+1/2'
4 'x, y, z'
5 'x+1/2, -y+1/2, z+1/2'
6 '-x+1/2, -y+1/2, -z'
7 '-x+1/2, y+1/2, -z+1/2'
8 'x+1/2, y+1/2, z'
loop_
_atom_type_symbol
_atom_type_oxidation_number
As5+ 5
Na1+ 1
O2- -2
H1+ 1
loop_
_atom_site_label
_atom_site_type_symbol
_atom_site_symmetry_multiplicity
_atom_site_Wyckoff_symbol
_atom_site_fract_x
_atom_site_fract_y
_atom_site_fract_z
_atom_site_B_iso_or_equiv
_atom_site_occupancy
_atom_site_attached_hydrogens
As1 As5+ 8 f 0.1422(1) 0.1761(1) 0.1004(1) . 1. 0
As2 As5+ 8 f 0.2798(2) 0.0140(2) 0.2457(1) . 1. 0
As3 As5+ 8 f 0.4291(1) 0.1718(2) 0.3979(1) . 1. 0
Na1 Na1+ 8 f 0.1557(6) 0.3537(7) 0.4200(4) 1.5(1) 1. 0
Na2 Na1+ 8 f 0.8477(6) 0.0152(7) 0.5887(4) 1.4(1) 1. 0
Na3 Na1+ 4 e 0 0.2071(9) 0.25 1.6(2) 1. 0
Na4 Na1+ 4 e 0 0.825(1) 0.25 2.2(2) 1. 0
O1 O2- 8 f 0.152(1) 0.022(1) 0.0505(8) 1.5(3) 1. 0
O2 O2- 8 f 0.0020(9) 0.181(1) 0.1202(7) 1.6(3) 1. 0
O3 O2- 8 f 0.1852(9) 0.316(1) 0.0591(7) 1.4(2) 1. 0
O4 O2- 8 f 0.2597(9) 0.157(1) 0.1810(7) 1.0(2) 1. 0
O5 O2- 8 f 0.332(1) -.125(1) 0.2100(7) 1.5(2) 1. 0
O6 O2- 8 f 0.154(1) 0.005(1) 0.2815(7) 1.7(3) 1. 0
O7 O2- 8 f 0.4052(9) 0.093(1) 0.3090(7) 1.4(2) 1. 0
O8 O2- 8 f 0.555(1) 0.072(1) 0.4400(8) 1.2(2) 1. 0
O9 O2- 8 f 0.3100(9) 0.160(1) 0.4393(7) 1.3(2) 1. 0
O10 O2- 8 f 0.473(1) 0.339(1) 0.3859(7) 1.5(2) 1. 0
H1 H1+ 8 f 0.13(2) -.03(2) 0.07(1) . 1. 0
H2 H1+ 8 f 0.59(2) 0.14(2) 0.48(1) . 1. 0
loop_
_atom_site_aniso_label
_atom_site_aniso_type_symbol
_atom_site_aniso_beta_11
_atom_site_aniso_beta_22
_atom_site_aniso_beta_33
_atom_site_aniso_beta_12
_atom_site_aniso_beta_13
_atom_site_aniso_beta_23
As1 As5+ 0.0020(2) 0.0023(2) 0.0016(1) 0.0000(2) 0.0009(1) 0.0001(1)
As2 As5+ 0.0020(2) 0.0028(2) 0.0014(1) 0.0002(2) 0.0007(1) -.0001(1)
As3 As5+ 0.0019(2) 0.0025(2) 0.0015(1) 0.0001(2) 0.0008(1) -.0001(1)
#End of TTdata_68512-ICSD