
#(C) 2019 by FIZ Karlsruhe - Leibniz Institute for Information Infrastructure.  All rights reserved.
data_68555-ICSD
_database_code_ICSD 68555
_audit_creation_date 1991-07-10
_chemical_name_systematic 'Dirubidium sodium hexaaluminium fluoride'
_chemical_formula_structural 'Rb2 Na Al6 F21'
_chemical_formula_sum 'Al6 F21 Na1 Rb2'
_exptl_crystal_density_diffrn 3.17
_publ_section_title

;
Crystal structure of Rb2NaAl6F21; a new term of the A2Na(AlxF3x+1)3 family (A=
Rb, Cs)
;
loop_
_citation_id
_citation_journal_full
_citation_year
_citation_journal_volume
_citation_page_first
_citation_page_last
_citation_journal_id_ASTM
primary 'European Journal of Solid State and Inorganic Chemistry' 1989 26 281
288 EJSCE5
loop_
_publ_author_name
'Le Bail, A.'
'Gao, Y.'
'Jacoboni, C.'
_cell_length_a 12.075(6)
_cell_length_b 6.972(3)
_cell_length_c 10.214(5)
_cell_angle_alpha 90.
_cell_angle_beta 113.20(2)
_cell_angle_gamma 90.
_cell_volume 790.35
_cell_formula_units_Z 2
_symmetry_space_group_name_H-M 'C 1 2 1'
_symmetry_Int_Tables_number 5
_refine_ls_R_factor_all 0.04
loop_
_symmetry_equiv_pos_site_id
_symmetry_equiv_pos_as_xyz
1 '-x, y, -z'
2 'x, y, z'
3 '-x+1/2, y+1/2, -z'
4 'x+1/2, y+1/2, z'
loop_
_atom_type_symbol
_atom_type_oxidation_number
Rb1+ 1
Na1+ 1
Al3+ 3
F1- -1
loop_
_atom_site_label
_atom_site_type_symbol
_atom_site_symmetry_multiplicity
_atom_site_Wyckoff_symbol
_atom_site_fract_x
_atom_site_fract_y
_atom_site_fract_z
_atom_site_B_iso_or_equiv
_atom_site_occupancy
_atom_site_attached_hydrogens
Rb1 Rb1+ 4 c 0.1343(2) 0 0.4048(1) . 1. 0
Na1 Na1+ 2 b 0 0.4844(5) 0.5 0.67(2) 1. 0
Al1 Al3+ 4 c 0.5644(4) -.0232(5) 0.1916(4) 0.42(4) 1. 0
Al2 Al3+ 4 c 0.3138(4) 0.2287(6) 0.1915(3) 0.42(2) 1. 0
Al3 Al3+ 4 c -.3137(4) 0.7279(5) -.1894(3) 0.38(2) 1. 0
F1 F1- 2 a 0 0.4923(14) 0 1.03(15) 1. 0
F2 F1- 4 c 0.2677(5) 0.2266(7) -.0006(4) 0.84(7) 1. 0
F3 F1- 4 c 0.2707(5) -.0211(9) 0.1858(5) 0.44(7) 1. 0
F4 F1- 4 c 0.4624(8) 0.1622(9) 0.2056(5) 1.10(7) 1. 0
F5 F1- 4 c -.4511(9) 0.7958(10) -.1671(4) 1.03(6) 1. 0
F6 F1- 4 c 0.1464(5) -.0230(9) 0.8116(5) 0.34(6) 1. 0
F7 F1- 4 c 0.1622(8) 0.2943(9) 0.1697(4) 1.01(6) 1. 0
F8 F1- 4 c -.1747(9) 0.6631(9) -.2049(5) 1.06(6) 1. 0
F9 F1- 4 c 0.3674(8) 0.2302(11) 0.3780(5) 1.08(8) 1. 0
F10 F1- 4 c -.3828(9) 0.7389(11) -.3742(5) 1.22(8) 1. 0
F11 F1- 4 c 0.3774(6) -.0590(8) 0.6259(6) 0.98(10) 1. 0
loop_
_atom_site_aniso_label
_atom_site_aniso_type_symbol
_atom_site_aniso_beta_11
_atom_site_aniso_beta_22
_atom_site_aniso_beta_33
_atom_site_aniso_beta_12
_atom_site_aniso_beta_13
_atom_site_aniso_beta_23
Rb1 Rb1+ 0.0291(11) 0.0273(19) 0.0216(2) 0.0026(3) 0.0089(7) 0.0040(4)
#End of TTdata_68555-ICSD