
#(C) 2019 by FIZ Karlsruhe - Leibniz Institute for Information Infrastructure.  All rights reserved.
data_68707-ICSD
_database_code_ICSD 68707
_audit_creation_date 1992-01-20
_audit_update_record 2006-04-01
_chemical_name_systematic 'Sodium nitrate(III)'
_chemical_formula_structural 'Na (N O2)'
_chemical_formula_sum 'N1 Na1 O2'
_chemical_name_structure_type NaNO2
_exptl_crystal_density_diffrn 2.19
_cell_measurement_temperature 120.
_publ_section_title
'Electron density distribution in crystals of sodium nitrite at 12O K'
loop_
_citation_id
_citation_journal_full
_citation_year
_citation_journal_volume
_citation_page_first
_citation_page_last
_citation_journal_id_ASTM
primary 'Acta Crystallographica, Section B: Structural Science' 1990 46 343 347
ASBSDK
loop_
_publ_author_name
'Okuda, M.'
'Ohba, S.'
'Saito, Y.'
'Ito, T.'
'Shibuya, I.'
_cell_length_a 3.518(1)
_cell_length_b 5.535(1)
_cell_length_c 5.382(1)
_cell_angle_alpha 90.
_cell_angle_beta 90.
_cell_angle_gamma 90.
_cell_volume 104.8
_cell_formula_units_Z 2
_symmetry_space_group_name_H-M 'I m 2 m'
_symmetry_Int_Tables_number 44
_refine_ls_R_factor_all 0.013
loop_
_symmetry_equiv_pos_site_id
_symmetry_equiv_pos_as_xyz
1 'x, y, -z'
2 '-x, y, z'
3 '-x, y, -z'
4 'x, y, z'
5 'x+1/2, y+1/2, -z+1/2'
6 '-x+1/2, y+1/2, z+1/2'
7 '-x+1/2, y+1/2, -z+1/2'
8 'x+1/2, y+1/2, z+1/2'
loop_
_atom_type_symbol
_atom_type_oxidation_number
Na1+ 1
O2- -2
N3+ 3
loop_
_atom_site_label
_atom_site_type_symbol
_atom_site_symmetry_multiplicity
_atom_site_Wyckoff_symbol
_atom_site_fract_x
_atom_site_fract_y
_atom_site_fract_z
_atom_site_B_iso_or_equiv
_atom_site_occupancy
_atom_site_attached_hydrogens
Na1 Na1+ 2 a 0 0.58814(10) 0 . 1. 0
O1 O2- 4 c 0 0 0.19620(8) . 1. 0
N1 N3+ 2 a 0 0.12244(13) 0 . 1. 0
loop_
_atom_site_aniso_label
_atom_site_aniso_type_symbol
_atom_site_aniso_U_11
_atom_site_aniso_U_22
_atom_site_aniso_U_33
_atom_site_aniso_U_12
_atom_site_aniso_U_13
_atom_site_aniso_U_23
Na1 Na1+ 0.0124(1) 0.0099(1) 0.0099(1) 0 0 0
O1 O2- 0.0165(1) 0.0125(1) 0.0086(1) 0 0 0.0013(1)
N1 N3+ 0.0148(2) 0.0089(2) 0.0090(2) 0 0 0
#End of TTdata_68707-ICSD