
#(C) 2019 by FIZ Karlsruhe - Leibniz Institute for Information Infrastructure.  All rights reserved.
data_68746-ICSD
_database_code_ICSD 68746
_audit_creation_date 1992-01-20
_chemical_name_systematic 'Sodium indium scandium catena-silicate (1/.5/.5/2)'
_chemical_formula_structural 'Na (In0.50 Sc0.50) (Si2 O6)'
_chemical_formula_sum 'In0.5 Na1 O6 Sc0.5 Si2'
_chemical_name_structure_type Pyroxene-CaMg(SiO3)2
_exptl_crystal_density_diffrn 3.69
_cell_measurement_temperature 296.
_publ_section_title
'Structures of Na(In,Sc)Si2O6 clinopyroxenes formed at 6GPa pressure'
loop_
_citation_id
_citation_journal_full
_citation_year
_citation_journal_volume
_citation_page_first
_citation_page_last
_citation_journal_id_ASTM
primary 'Acta Crystallographica, Section B: Structural Science' 1990 46 742 747
ASBSDK
loop_
_publ_author_name
'Ohashi, H.'
'Osawa, T.'
'Sato, A.'
_cell_length_a 9.8701(4)
_cell_length_b 9.0901(2)
_cell_length_c 5.3559(2)
_cell_angle_alpha 90.
_cell_angle_beta 107.179(2)
_cell_angle_gamma 90.
_cell_volume 459.09
_cell_formula_units_Z 4
_symmetry_space_group_name_H-M 'C 1 2/c 1'
_symmetry_Int_Tables_number 15
_refine_ls_R_factor_all 0.024
loop_
_symmetry_equiv_pos_site_id
_symmetry_equiv_pos_as_xyz
1 'x, -y, z+1/2'
2 '-x, -y, -z'
3 '-x, y, -z+1/2'
4 'x, y, z'
5 'x+1/2, -y+1/2, z+1/2'
6 '-x+1/2, -y+1/2, -z'
7 '-x+1/2, y+1/2, -z+1/2'
8 'x+1/2, y+1/2, z'
loop_
_atom_type_symbol
_atom_type_oxidation_number
Si4+ 4
O2- -2
In3+ 3
Sc3+ 3
Na1+ 1
loop_
_atom_site_label
_atom_site_type_symbol
_atom_site_symmetry_multiplicity
_atom_site_Wyckoff_symbol
_atom_site_fract_x
_atom_site_fract_y
_atom_site_fract_z
_atom_site_B_iso_or_equiv
_atom_site_occupancy
_atom_site_attached_hydrogens
Si1 Si4+ 8 f 0.29153(6) 0.08684(6) 0.2460(1) . 1. 0
O1 O2- 8 f 0.1188(2) 0.0789(2) 0.1486(3) . 1. 0
O2 O2- 8 f 0.3581(2) 0.2468(2) 0.3121(3) . 1. 0
O3 O2- 8 f 0.3497(1) 0.0100(2) 0.0187(2) . 1. 0
In1 In3+ 4 e 0 0.89525(3) 0.25 . 0.5 0
Sc1 Sc3+ 4 e 0 0.89525(3) 0.25 . 0.5 0
Na1 Na1+ 4 e 0 0.3038(2) 0.25 . 1. 0
loop_
_atom_site_aniso_label
_atom_site_aniso_type_symbol
_atom_site_aniso_U_11
_atom_site_aniso_U_22
_atom_site_aniso_U_33
_atom_site_aniso_U_12
_atom_site_aniso_U_13
_atom_site_aniso_U_23
Si1 Si4+ 0.0046(2) 0.0050(2) 0.0027(2) -.0008(2) 0.0012(2) -.0001(2)
O1 O2- 0.0053(5) 0.0077(5) 0.0045(5) -.0001(5) 0.0007(4) 0.0008(5)
O2 O2- 0.0110(5) 0.0070(6) 0.0077(5) -.0035(5) 0.0030(4) -.0010(5)
O3 O2- 0.0071(6) 0.0102(6) 0.0044(5) -.0005(5) 0.0016(4) -.0020(4)
In1 In3+ 0.0059(1) 0.0053(1) 0.0041(1) 0 0.00096(8) 0
Sc1 Sc3+ 0.0059(1) 0.0053(1) 0.0041(1) 0 0.00096(8) 0
Na1 Na1+ 0.0215(6) 0.0115(6) 0.0094(5) 0 -.0034(5) 0
#End of TTdata_68746-ICSD