
#(C) 2019 by FIZ Karlsruhe - Leibniz Institute for Information Infrastructure.  All rights reserved.
data_68745-ICSD
_database_code_ICSD 68745
_audit_creation_date 1992-01-20
_chemical_name_systematic 'Sodium indium scandium catena-silicate (1/.6/.5/2)'
_chemical_formula_structural 'Na (In0.55 Sc0.45) (Si2 O6)'
_chemical_formula_sum 'In0.55 Na1 O6 Sc0.45 Si2'
_chemical_name_structure_type Pyroxene-CaMg(SiO3)2
_exptl_crystal_density_diffrn 3.74
_cell_measurement_temperature 296.
_publ_section_title
'Structures of Na(In,Sc)Si2O6 clinopyroxenes formed at 6GPa pressure'
loop_
_citation_id
_citation_journal_full
_citation_year
_citation_journal_volume
_citation_page_first
_citation_page_last
_citation_journal_id_ASTM
primary 'Acta Crystallographica, Section B: Structural Science' 1990 46 742 747
ASBSDK
loop_
_publ_author_name
'Ohashi, H.'
'Osawa, T.'
'Sato, A.'
_cell_length_a 9.8734(5)
_cell_length_b 9.0947(2)
_cell_length_c 5.3570(3)
_cell_angle_alpha 90.
_cell_angle_beta 107.187(2)
_cell_angle_gamma 90.
_cell_volume 459.55
_cell_formula_units_Z 4
_symmetry_space_group_name_H-M 'C 1 2/c 1'
_symmetry_Int_Tables_number 15
_refine_ls_R_factor_all 0.019
loop_
_symmetry_equiv_pos_site_id
_symmetry_equiv_pos_as_xyz
1 'x, -y, z+1/2'
2 '-x, -y, -z'
3 '-x, y, -z+1/2'
4 'x, y, z'
5 'x+1/2, -y+1/2, z+1/2'
6 '-x+1/2, -y+1/2, -z'
7 '-x+1/2, y+1/2, -z+1/2'
8 'x+1/2, y+1/2, z'
loop_
_atom_type_symbol
_atom_type_oxidation_number
Si4+ 4
O2- -2
In3+ 3
Sc3+ 3
Na1+ 1
loop_
_atom_site_label
_atom_site_type_symbol
_atom_site_symmetry_multiplicity
_atom_site_Wyckoff_symbol
_atom_site_fract_x
_atom_site_fract_y
_atom_site_fract_z
_atom_site_B_iso_or_equiv
_atom_site_occupancy
_atom_site_attached_hydrogens
Si1 Si4+ 8 f 0.29152(6) 0.08682(6) 0.2461(1) . 1. 0
O1 O2- 8 f 0.1190(1) 0.0788(2) 0.1489(3) . 1. 0
O2 O2- 8 f 0.3577(2) 0.2470(2) 0.3131(3) . 1. 0
O3 O2- 8 f 0.3500(1) 0.0101(2) 0.0186(2) . 1. 0
In1 In3+ 4 e 0 0.89518(2) 0.25 . 0.55 0
Sc1 Sc3+ 4 e 0 0.89518(2) 0.25 . 0.45 0
Na1 Na1+ 4 e 0 0.3037(1) 0.25 . 1. 0
loop_
_atom_site_aniso_label
_atom_site_aniso_type_symbol
_atom_site_aniso_U_11
_atom_site_aniso_U_22
_atom_site_aniso_U_33
_atom_site_aniso_U_12
_atom_site_aniso_U_13
_atom_site_aniso_U_23
Si1 Si4+ 0.0045(2) 0.0041(2) 0.0043(2) -.0001(2) 0.0012(1) -.0001(2)
O1 O2- 0.0061(5) 0.0061(5) 0.0067(5) -.0015(5) 0.0012(4) 0.0010(5)
O2 O2- 0.0106(5) 0.0067(5) 0.0094(5) -.0033(5) 0.0029(4) -.0001(5)
O3 O2- 0.0091(5) 0.0073(6) 0.0064(5) -.0006(5) 0.0025(4) -.0024(4)
In1 In3+ 0.00551(9) 0.0047(1) 0.0052(1) 0 0.00137(8) 0
Sc1 Sc3+ 0.00551(9) 0.0047(1) 0.0052(1) 0 0.00137(8) 0
Na1 Na1+ 0.0256(6) 0.0096(5) 0.0107(5) 0 -.0029(5) 0
#End of TTdata_68745-ICSD