
#(C) 2019 by FIZ Karlsruhe - Leibniz Institute for Information Infrastructure.  All rights reserved.
data_68741-ICSD
_database_code_ICSD 68741
_audit_creation_date 1992-01-20
_chemical_name_systematic 'Sodium indium catena-disilicate'
_chemical_formula_structural 'Na In (Si2 O6)'
_chemical_formula_sum 'In1 Na1 O6 Si2'
_chemical_name_structure_type Pyroxene-CaMg(SiO3)2
_exptl_crystal_density_diffrn 4.16
_cell_measurement_temperature 296.
_publ_section_title
'Structures of Na(In,Sc)Si2O6 clinopyroxenes formed at 6GPa pressure'
loop_
_citation_id
_citation_journal_full
_citation_year
_citation_journal_volume
_citation_page_first
_citation_page_last
_citation_journal_id_ASTM
primary 'Acta Crystallographica, Section B: Structural Science' 1990 46 742 747
ASBSDK
loop_
_publ_author_name
'Ohashi, H.'
'Osawa, T.'
'Sato, A.'
_cell_length_a 9.8997(5)
_cell_length_b 9.1310(3)
_cell_length_c 5.3656(3)
_cell_angle_alpha 90.
_cell_angle_beta 107.226(2)
_cell_angle_gamma 90.
_cell_volume 463.26
_cell_formula_units_Z 4
_symmetry_space_group_name_H-M 'C 1 2/c 1'
_symmetry_Int_Tables_number 15
_refine_ls_R_factor_all 0.017
loop_
_symmetry_equiv_pos_site_id
_symmetry_equiv_pos_as_xyz
1 'x, -y, z+1/2'
2 '-x, -y, -z'
3 '-x, y, -z+1/2'
4 'x, y, z'
5 'x+1/2, -y+1/2, z+1/2'
6 '-x+1/2, -y+1/2, -z'
7 '-x+1/2, y+1/2, -z+1/2'
8 'x+1/2, y+1/2, z'
loop_
_atom_type_symbol
_atom_type_oxidation_number
Si4+ 4
O2- -2
In3+ 3
Na1+ 1
loop_
_atom_site_label
_atom_site_type_symbol
_atom_site_symmetry_multiplicity
_atom_site_Wyckoff_symbol
_atom_site_fract_x
_atom_site_fract_y
_atom_site_fract_z
_atom_site_B_iso_or_equiv
_atom_site_occupancy
_atom_site_attached_hydrogens
Si1 Si4+ 8 f 0.29172(7) 0.08660(6) 0.2475(1) . 1. 0
O1 O2- 8 f 0.1190(2) 0.0797(2) 0.1505(3) . 1. 0
O2 O2- 8 f 0.3568(2) 0.2455(2) 0.3177(3) . 1. 0
O3 O2- 8 f 0.3488(1) 0.0115(2) 0.0172(3) . 1. 0
In1 In3+ 4 e 0 0.89471(2) 0.25 . 1. 0
Na1 Na1+ 4 e 0 0.3033(2) 0.25 . 1. 0
loop_
_atom_site_aniso_label
_atom_site_aniso_type_symbol
_atom_site_aniso_U_11
_atom_site_aniso_U_22
_atom_site_aniso_U_33
_atom_site_aniso_U_12
_atom_site_aniso_U_13
_atom_site_aniso_U_23
Si1 Si4+ 0.0045(2) 0.0046(2) 0.0064(2) -.0007(2) 0.0014(2) -.0005(2)
O1 O2- 0.0060(6) 0.0078(5) 0.0054(5) -.0006(5) 0.0003(4) 0.0005(5)
O2 O2- 0.0103(6) 0.0088(6) 0.0100(5) -.0027(5) 0.0037(4) 0.0005(5)
O3 O2- 0.0071(6) 0.0101(6) 0.0078(5) -.0014(5) 0.0019(4) -.0036(5)
In1 In3+ 0.00477(8) 0.0053(1) 0.00560(8) 0 0.00127(7) 0
Na1 Na1+ 0.0236(7) 0.0137(6) 0.0130(5) 0 -.0032(5) 0
#End of TTdata_68741-ICSD