
#(C) 2019 by FIZ Karlsruhe - Leibniz Institute for Information Infrastructure.  All rights reserved.
data_68966-ICSD
_database_code_ICSD 68966
_audit_creation_date 1992-01-20
_chemical_name_systematic 'Disodium copper iron(III) fluoride'
_chemical_formula_structural 'Na2 Cu Fe F7'
_chemical_formula_sum 'Cu1 F7 Fe1 Na2'
_chemical_name_structure_type Na2CuGaF7
_exptl_crystal_density_diffrn 3.54
_publ_section_title
'The crystal structure of Na2CuFeF7, a new variant in the weberite family'
loop_
_citation_id
_citation_journal_full
_citation_year
_citation_journal_volume
_citation_page_first
_citation_page_last
_citation_journal_id_ASTM
primary 'European Journal of Solid State and Inorganic Chemistry' 1990 27 467
475 EJSCE5
loop_
_publ_author_name
'Yakubovich, O.V.'
'Urusov, V.S.'
'Frenzen, G.'
'Massa, W.'
'Babel, D.'
_cell_length_a 12.46(1)
_cell_length_b 7.363(8)
_cell_length_c 12.93(1)
_cell_angle_alpha 90.
_cell_angle_beta 109.36(7)
_cell_angle_gamma 90.
_cell_volume 1119.16
_cell_formula_units_Z 8
_symmetry_space_group_name_H-M 'C 1 2/c 1'
_symmetry_Int_Tables_number 15
_refine_ls_R_factor_all 0.029
loop_
_symmetry_equiv_pos_site_id
_symmetry_equiv_pos_as_xyz
1 'x, -y, z+1/2'
2 '-x, -y, -z'
3 '-x, y, -z+1/2'
4 'x, y, z'
5 'x+1/2, -y+1/2, z+1/2'
6 '-x+1/2, -y+1/2, -z'
7 '-x+1/2, y+1/2, -z+1/2'
8 'x+1/2, y+1/2, z'
loop_
_atom_type_symbol
_atom_type_oxidation_number
Na1+ 1
Cu2+ 2
Fe3+ 3
F1- -1
loop_
_atom_site_label
_atom_site_type_symbol
_atom_site_symmetry_multiplicity
_atom_site_Wyckoff_symbol
_atom_site_fract_x
_atom_site_fract_y
_atom_site_fract_z
_atom_site_B_iso_or_equiv
_atom_site_occupancy
_atom_site_attached_hydrogens
Na1 Na1+ 4 b 0 0.5 0 . 1. 0
Na2 Na1+ 4 e 0.5 0.2350(3) 0.25 . 1. 0
Na3 Na1+ 8 f 0.2479(1) 0.0295(2) 0.7528(1) . 1. 0
Cu1 Cu2+ 4 a 0 0 0 . 1. 0
Cu2 Cu2+ 4 d 0.25 0.25 0.5 . 1. 0
Fe1 Fe3+ 4 c 0.25 0.25 0 . 1. 0
Fe2 Fe3+ 4 e 0.5 0.24224(8) 0.75 . 1. 0
F1 F1- 8 f 0.2902(2) 0.2063(2) 0.1567(1) . 1. 0
F2 F1- 8 f 0.0479(2) 0.0647(3) 0.1744(2) . 1. 0
F3 F1- 8 f 0.2953(1) 0.0123(2) 0.9693(2) . 1. 0
F4 F1- 8 f 0.0909(1) 0.1894(3) 0.9676(2) . 1. 0
F5 F1- 8 f 0.1247(1) 0.1690(3) 0.5464(1) . 1. 0
F6 F1- 8 f 0.4541(2) 0.0519(3) 0.8281(1) . 1. 0
F7 F1- 8 f 0.3427(1) 0.2419(3) 0.6548(1) . 1. 0
loop_
_atom_site_aniso_label
_atom_site_aniso_type_symbol
_atom_site_aniso_U_11
_atom_site_aniso_U_22
_atom_site_aniso_U_33
_atom_site_aniso_U_12
_atom_site_aniso_U_13
_atom_site_aniso_U_23
Na1 Na1+ 0.029(1) 0.071(1) 0.0153(9) 0.013(1) 0.0079(8) 0.015(1)
Na2 Na1+ 0.030(1) 0.034(1) 0.048(1) 0 0.008(1) 0
Na3 Na1+ 0.0237(6) 0.0261(8) 0.0353(8) -.0013(5) 0.0115(6) -.0109(6)
Cu1 Cu2+ 0.0095(1) 0.0100(1) 0.0128(1) 0.0004(1) 0.0046(1) 0.0008(1)
Cu2 Cu2+ 0.0090(1) 0.0086(3) 0.0077(1) -.0009(3) 0.0020(1) 0.0005(6)
Fe1 Fe3+ 0.0096(3) 0.0061(3) 0.0105(3) -.0008(1) 0.0044(1) -.0008(3)
Fe2 Fe3+ 0.0098(3) 0.0134(3) 0.0056(3) 0 0.0014(1) 0
F1 F1- 0.0243(9) 0.0214(9) 0.0161(8) 0.0006(8) 0.0089(6) 0.0020(6)
F2 F1- 0.026(1) 0.033(1) 0.0262(8) 0.0047(9) 0.0078(9) -.0134(9)
F3 F1- 0.0220(8) 0.0134(8) 0.033(1) 0.0009(8) 0.0114(8) -.0039(8)
F4 F1- 0.0146(8) 0.0223(9) 0.031(1) -.0054(8) 0.0079(8) 0.0027(8)
F5 F1- 0.0180(8) 0.0224(9) 0.0269(9) -.0090(8) 0.0104(8) -.0053(8)
F6 F1- 0.0238(9) 0.0272(9) 0.0146(8) -.0029(8) 0.0072(8) 0.0057(8)
F7 F1- 0.0157(8) 0.035(1) 0.0185(8) -.0020(8) -.0022(6) 0.0058(9)
#End of TTdata_68966-ICSD