
#(C) 2019 by FIZ Karlsruhe - Leibniz Institute for Information Infrastructure.  All rights reserved.
data_68986-ICSD
_database_code_ICSD 68986
_audit_creation_date 1992-01-20
_chemical_name_systematic 'Sodium iron(III) silicon oxide (0.95/0.95/0.05/2)'
_chemical_formula_structural 'Na0.95 (Fe0.95 Si0.05) O2'
_chemical_formula_sum 'Fe0.95 Na0.95 O2 Si0.05'
_chemical_name_structure_type NaFeO2(beta)
_exptl_crystal_density_diffrn 3.32
_publ_section_title

;
A structural study of the incorporation of silica into sodium ferrites, Na1-x
(Fe1-x Six O2), x= O to 0.20
;
loop_
_citation_id
_citation_journal_full
_citation_year
_citation_journal_volume
_citation_page_first
_citation_page_last
_citation_journal_id_ASTM
primary 'Journal of Solid State Chemistry' 1990 85 202 219 JSSCBI
loop_
_publ_author_name
'Grey, I.E.'
'Hoskins, B.F.'
'Madsen, I.C.'
_cell_length_a 5.6328(2)
_cell_length_b 5.3744(2)
_cell_length_c 7.1604(3)
_cell_angle_alpha 90.
_cell_angle_beta 90.
_cell_angle_gamma 90.
_cell_volume 216.77
_cell_formula_units_Z 4
_symmetry_space_group_name_H-M 'P n 21 a'
_symmetry_Int_Tables_number 33
_refine_ls_R_factor_all 0.039
loop_
_symmetry_equiv_pos_site_id
_symmetry_equiv_pos_as_xyz
1 'x+1/2, y, -z+1/2'
2 '-x+1/2, y+1/2, z+1/2'
3 '-x, y+1/2, -z'
4 'x, y, z'
loop_
_atom_type_symbol
_atom_type_oxidation_number
Fe3+ 3
Si4+ 4
Na1+ 1
O2- -2
loop_
_atom_site_label
_atom_site_type_symbol
_atom_site_symmetry_multiplicity
_atom_site_Wyckoff_symbol
_atom_site_fract_x
_atom_site_fract_y
_atom_site_fract_z
_atom_site_B_iso_or_equiv
_atom_site_occupancy
_atom_site_attached_hydrogens
Fe1 Fe3+ 4 a 0.0661(4) 0 0.1266(6) 0.29(6) 0.95 0
Si1 Si4+ 4 a 0.0661(4) 0 0.1266(6) 0.29(6) 0.05 0
Na1 Na1+ 4 a 0.4293(9) -.480(2) 0.122(2) 0.95(17) 0.95 0
O1 O2- 4 a 0.047(2) -.342(1) 0.089(2) 0.75(33) 1. 0
O2 O2- 4 a 0.382(1) 0.078(2) 0.162(2) 0.61(35) 1. 0
#End of TTdata_68986-ICSD