
#(C) 2019 by FIZ Karlsruhe - Leibniz Institute for Information Infrastructure.  All rights reserved.
data_68980-ICSD
_database_code_ICSD 68980
_audit_creation_date 1992-01-20
_audit_update_record 2006-04-01
_chemical_name_systematic 'Disodium hexafluorostannate'
_chemical_formula_structural 'Na2 (Sn F6)'
_chemical_formula_sum 'F6 Na2 Sn1'
_chemical_name_structure_type Ta2FeO6
_exptl_crystal_density_diffrn 3.58
_publ_section_title 'Zur Struktur von Na2 Sn F6'
loop_
_citation_id
_citation_journal_full
_citation_year
_citation_journal_volume
_citation_page_first
_citation_page_last
_citation_journal_id_ASTM
primary 'Journal of Fluorine Chemistry' 1990 48 219 227 JFLCAR
loop_
_publ_author_name
'Benner, G.'
'Hoppe, R.'
_cell_length_a 5.0532(3)
_cell_length_b 5.0532(3)
_cell_length_c 10.122(2)
_cell_angle_alpha 90.
_cell_angle_beta 90.
_cell_angle_gamma 90.
_cell_volume 258.46
_cell_formula_units_Z 2
_symmetry_space_group_name_H-M 'P 42/m n m'
_symmetry_Int_Tables_number 136
_refine_ls_R_factor_all 0.044
loop_
_symmetry_equiv_pos_site_id
_symmetry_equiv_pos_as_xyz
1 '-y+1/2, x+1/2, -z+1/2'
2 'y+1/2, -x+1/2, -z+1/2'
3 'y, x, -z'
4 '-y, -x, -z'
5 'y+1/2, -x+1/2, z+1/2'
6 '-y+1/2, x+1/2, z+1/2'
7 '-y, -x, z'
8 'y, x, z'
9 'x+1/2, -y+1/2, -z+1/2'
10 '-x+1/2, y+1/2, -z+1/2'
11 'x, y, -z'
12 '-x, -y, -z'
13 '-x+1/2, y+1/2, z+1/2'
14 'x+1/2, -y+1/2, z+1/2'
15 '-x, -y, z'
16 'x, y, z'
loop_
_atom_type_symbol
_atom_type_oxidation_number
Na1+ 1
Sn4+ 4
F1- -1
loop_
_atom_site_label
_atom_site_type_symbol
_atom_site_symmetry_multiplicity
_atom_site_Wyckoff_symbol
_atom_site_fract_x
_atom_site_fract_y
_atom_site_fract_z
_atom_site_B_iso_or_equiv
_atom_site_occupancy
_atom_site_attached_hydrogens
Na1 Na1+ 4 e 0 0 0.3367(2) . 1. 0
Sn1 Sn4+ 2 a 0 0 0 . 1. 0
F1 F1- 8 j 0.3149(3) 0.3149(3) 0.6428(2) . 1. 0
F2 F1- 4 f 0.2741(4) 0.2741(4) 0 . 1. 0
loop_
_atom_site_aniso_label
_atom_site_aniso_type_symbol
_atom_site_aniso_U_11
_atom_site_aniso_U_22
_atom_site_aniso_U_33
_atom_site_aniso_U_12
_atom_site_aniso_U_13
_atom_site_aniso_U_23
Na1 Na1+ 0.0199(5) 0.0199(5) 0.0140(7) 0 0 0
Sn1 Sn4+ 0.0118(1) 0.0118(1) 0.0108(2) 0 0 0.0010(3)
F1 F1- 0.0212(7) 0.0212(7) 0.0157(9) -.0026(5) -.0026(5) -.0088(9)
F2 F1- 0.0215(10) 0.0215(10) 0.0223(14) 0 0 -.0102(13)
#End of TTdata_68980-ICSD