
#(C) 2019 by FIZ Karlsruhe - Leibniz Institute for Information Infrastructure.  All rights reserved.
data_68990-ICSD
_database_code_ICSD 68990
_audit_creation_date 1992-01-20
_audit_update_record 2010-08-01
_chemical_name_systematic 'Sodium iron(III) silicon oxide (0.9/0.9/0.1/2)'
_chemical_formula_structural 'Na0.895 (Fe0.905 Si0.095) O2'
_chemical_formula_sum 'Fe0.905 Na0.895 O2 Si0.095'
_chemical_name_structure_type (NaFe)1-xSixO2
_exptl_crystal_density_diffrn 3.31
_publ_section_title

;
A structural study of the incorporation of silica into sodium ferrites, Na1-x
(Fe1-x Six O2), x= O to 0.20
;
loop_
_citation_id
_citation_journal_full
_citation_year
_citation_journal_volume
_citation_page_first
_citation_page_last
_citation_journal_id_ASTM
primary 'Journal of Solid State Chemistry' 1990 85 202 219 JSSCBI
loop_
_publ_author_name
'Grey, I.E.'
'Hoskins, B.F.'
'Madsen, I.C.'
_cell_length_a 5.3923(2)
_cell_length_b 10.7658(4)
_cell_length_c 14.6468(4)
_cell_angle_alpha 90.
_cell_angle_beta 90.
_cell_angle_gamma 90.
_cell_volume 850.28
_cell_formula_units_Z 16
_symmetry_space_group_name_H-M 'P b c a'
_symmetry_Int_Tables_number 61
_refine_ls_R_factor_all 0.036
loop_
_symmetry_equiv_pos_site_id
_symmetry_equiv_pos_as_xyz
1 'x+1/2, y, -z+1/2'
2 'x, -y+1/2, z+1/2'
3 '-x+1/2, y+1/2, z'
4 '-x, -y, -z'
5 '-x+1/2, -y, z+1/2'
6 '-x, y+1/2, -z+1/2'
7 'x+1/2, -y+1/2, -z'
8 'x, y, z'
loop_
_atom_type_symbol
_atom_type_oxidation_number
Fe3+ 3
Si4+ 4
Fe3+ 3
Si4+ 4
Na1+ 1
O2- -2
loop_
_atom_site_label
_atom_site_type_symbol
_atom_site_symmetry_multiplicity
_atom_site_Wyckoff_symbol
_atom_site_fract_x
_atom_site_fract_y
_atom_site_fract_z
_atom_site_B_iso_or_equiv
_atom_site_occupancy
_atom_site_attached_hydrogens
Fe1 Fe3+ 8 c 0.1909(9) 0.0256(4) 0.1886(4) 0.47(8) 0.89(2) 0
Si1 Si4+ 8 c 0.1909(9) 0.0256(4) 0.1886(4) 0.47(8) 0.11(2) 0
Fe2 Fe3+ 8 c 0.3079(8) 0.2758(4) 0.0601(4) 0.47(8) 0.92(2) 0
Si2 Si4+ 8 c 0.3079(8) 0.2758(4) 0.0601(4) 0.47(8) 0.08(2) 0
Na1 Na1+ 8 c 0.724(2) -.021(1) 0.061(1) 0.69(3) 0.93(1) 0
Na2 Na1+ 8 c 0.816(2) 0.281(1) 0.192(1) 0.69(3) 0.86(1) 0
O1 O2- 8 c 0.638(3) 0.279(1) 0.042(1) 0.79(14) 1. 0
O2 O2- 8 c 0.187(3) 0.454(2) 0.079(1) 0.79(14) 1. 0
O3 O2- 8 c 0.218(2) 0.188(1) 0.171(1) 0.79(14) 1. 0
O4 O2- 8 c 0.141(3) 0.480(1) 0.285(1) 0.79(14) 1. 0
#End of TTdata_68990-ICSD