
#(C) 2019 by FIZ Karlsruhe - Leibniz Institute for Information Infrastructure.  All rights reserved.
data_69010-ICSD
_database_code_ICSD 69010
_audit_creation_date 1992-01-20
_audit_update_record 2012-08-01
_chemical_name_systematic 'Disodium beryllium silicate'
_chemical_formula_structural 'Na2 Be (Si O4)'
_chemical_formula_sum 'Be1 Na2 O4 Si1'
_chemical_name_structure_type Na2BeSiO4
_exptl_crystal_density_diffrn 2.87
_cell_measurement_temperature 623.
_publ_section_title

;
The crystal structure and twinning laws of the orthorhombic modification of
Na2 Be Si O4
;
loop_
_citation_id
_citation_journal_full
_citation_year
_citation_journal_volume
_citation_page_first
_citation_page_last
_citation_journal_id_ASTM
primary 'Journal of Solid State Chemistry' 1990 86 64 74 JSSCBI
loop_
_publ_author_name
'Maksimov, B.'
'Tamazyan, R.'
'Sirota, M.I.'
'Frostaeng, S.'
'Grins, J.'
'Nygren, M.'
_cell_length_a 9.866(2)
_cell_length_b 4.945(1)
_cell_length_c 13.972(3)
_cell_angle_alpha 90.
_cell_angle_beta 90.
_cell_angle_gamma 90.
_cell_volume 681.66
_cell_formula_units_Z 8
_symmetry_space_group_name_H-M 'P c a 21'
_symmetry_Int_Tables_number 29
_refine_ls_R_factor_all 0.048
loop_
_symmetry_equiv_pos_site_id
_symmetry_equiv_pos_as_xyz
1 'x+1/2, -y, z'
2 '-x+1/2, y, z+1/2'
3 '-x, -y, z+1/2'
4 'x, y, z'
loop_
_atom_type_symbol
_atom_type_oxidation_number
Be2+ 2
Si4+ 4
Na1+ 1
O2- -2
loop_
_atom_site_label
_atom_site_type_symbol
_atom_site_symmetry_multiplicity
_atom_site_Wyckoff_symbol
_atom_site_fract_x
_atom_site_fract_y
_atom_site_fract_z
_atom_site_B_iso_or_equiv
_atom_site_occupancy
_atom_site_attached_hydrogens
Be1 Be2+ 4 a 0.2453(24) 0.9921(33) 0.4446(14) 0.5 1. 0
Be2 Be2+ 4 a 0.0299(16) 0.5214(28) 0.6926(11) 0.5 1. 0
Si1 Si4+ 4 a 0.0163(6) 0.0271(11) 0.8234 . 1. 0
Si2 Si4+ 4 a 0.2332(8) 0.5162(14) 0.0739(5) . 1. 0
Na1 Na1+ 4 a 0.0099(14) 0.5044(22) 0.9493(9) . 1. 0
Na2 Na1+ 4 a 0.0052(12) 0.0240(18) 0.5703(11) . 1. 0
Na3 Na1+ 4 a 0.2321(16) 0.5280(22) 0.3248(14) . 1. 0
Na4 Na1+ 4 a 0.2331(15) 0.0306(26) 0.1955(14) . 1. 0
O1 O2- 4 a 0.1663(16) 0.0721(24) 0.8546(13) . 1. 0
O2 O2- 4 a 0.1719(21) 0.6213(28) 0.6643(15) . 1. 0
O3 O2- 4 a 0.2016(19) 0.2767(23) 0.5128(14) . 1. 0
O4 O2- 4 a 0.1937(23) 0.7695(24) 0.0159(13) . 1. 0
O5 O2- 4 a 0.0834(23) 0.8985(30) 0.4117(13) . 1. 0
O6 O2- 4 a 0.0999(17) 0.3795(23) 0.1241(12) . 1. 0
O7 O2- 4 a 0.0045(15) 0.8015(23) 0.2255(11) . 1. 0
O8 O2- 4 a 0.0175(21) 0.3061(22) 0.3029(11) . 1. 0
loop_
_atom_site_aniso_label
_atom_site_aniso_type_symbol
_atom_site_aniso_U_11
_atom_site_aniso_U_22
_atom_site_aniso_U_33
_atom_site_aniso_U_12
_atom_site_aniso_U_13
_atom_site_aniso_U_23
Si1 Si4+ 0.0010(3) 0.0076(10) 0.0016(2) -.0003(6) -.0002(3) -.0011(10)
Si2 Si4+ 0.0014(6) 0.0054(10) 0.0006(3) -.0017(10) -.0001(3) -.0009(4)
Na1 Na1+ 0.0078(88) 0.0189(11) 0.0025(4) -.008(1) -.0023(4) 0.0009(3)
Na2 Na1+ 0.0074(10) 0.0276(40) 0.0024(2) -.0024(4) -.0024(7) 0.0008(4)
Na3 Na1+ 0.0128(11) 0.0368(7) 0.0048(8) 0.0041(8) 0.0024(4) -.0096(15)
Na4 Na1+ 0.0111(16) 0.0545(32) 0.0039(4) -.0023(6) 0.0028(10) 0.0022(12)
O1 O2- 0.0051(6) 0.0057(10) 0.0005(3) 0.0007(3) 0.0010(3) -.0010(4)
O2 O2- 0.0049(10) 0.0342(4) 0.0024(6) -.0001(4) -.0001(4) -.0019(7)
O3 O2- 0.0072(12) 0.0193(14) 0.0026(8) -.0003(4) 0.0015(7) -.0006(4)
O4 O2- 0.0017(7) 0.0092(10) 0.0029(7) -.0011(7) 0.0018(7) 0.0008(3)
O5 O2- 0.0027(10) 0.0231(11) 0.0025(7) 0.0006(3) -.0009(6) 0.0020(3)
O6 O2- 0.0037(11) 0.0126(40) 0.0009(4) -.0034(8) -.0007(5) -.0018(4)
O7 O2- 0.0045(7) 0.0098(11) 0.0009(4) 0.0037(9) 0.0009(5) -.0007(5)
O8 O2- 0.0035(15) 0.0081(11) 0.0030(4) 0.0025(10) -.0003(3) -.0016(8)
#End of TTdata_69010-ICSD