
#(C) 2019 by FIZ Karlsruhe - Leibniz Institute for Information Infrastructure.  All rights reserved.
data_69025-ICSD
_database_code_ICSD 69025
_audit_creation_date 1992-01-20
_chemical_name_systematic 'Sodium vanadium phosphate hydroxide (2.6/4/4/1)'
_chemical_formula_structural 'Na2.57 V4 (P4 O17) (O H)'
_chemical_formula_sum 'H1 Na2.57 O18 P4 V4'
_exptl_crystal_density_diffrn 3.21
_publ_section_title
'Synthesis and crystal structure of Na1+xV4P4O17(OH) (x=1.44)'
loop_
_citation_id
_citation_journal_full
_citation_year
_citation_journal_volume
_citation_page_first
_citation_page_last
_citation_journal_id_ASTM
primary 'Journal of Solid State Chemistry' 1990 87 178 185 JSSCBI
loop_
_publ_author_name
'Le Bail, A.'
'le Blanc, M.'
'Amoros, P.'
_cell_length_a 13.723(5)
_cell_length_b 6.314(2)
_cell_length_c 16.139(4)
_cell_angle_alpha 90.
_cell_angle_beta 90.
_cell_angle_gamma 90.
_cell_volume 1398.4
_cell_formula_units_Z 4
_symmetry_space_group_name_H-M 'P n m a'
_symmetry_Int_Tables_number 62
_refine_ls_R_factor_all 0.032
loop_
_symmetry_equiv_pos_site_id
_symmetry_equiv_pos_as_xyz
1 'x+1/2, y, -z+1/2'
2 'x, -y+1/2, z'
3 '-x+1/2, y+1/2, z+1/2'
4 '-x, -y, -z'
5 '-x+1/2, -y, z+1/2'
6 '-x, y+1/2, -z'
7 'x+1/2, -y+1/2, -z+1/2'
8 'x, y, z'
loop_
_atom_type_symbol
_atom_type_oxidation_number
Na1+ 1
V3+ 3.11
P5+ 5
O2- -2
H1+ 1
loop_
_atom_site_label
_atom_site_type_symbol
_atom_site_symmetry_multiplicity
_atom_site_Wyckoff_symbol
_atom_site_fract_x
_atom_site_fract_y
_atom_site_fract_z
_atom_site_B_iso_or_equiv
_atom_site_occupancy
_atom_site_attached_hydrogens
Na1 Na1+ 4 c 0.2946(1) 0.25 0.8895(1) . 1. 0
Na2 Na1+ 8 d 0.2650(2) 0.9898(5) 0.1700(2) . 0.65(1) 0
Na3 Na1+ 4 c 0.2004(9) 0.25 0.1102(7) . 0.27(1) 0
V1 V3+ 4 c 0.6399 0.25 0.9796 . 1. 0
V2 V3+ 4 c 0.5443(1) 0.25 0.2000(3) . 0.88(2) 0
V3 V3+ 4 c 0.5435(7) 0.25 0.1786(13) . 0.12(2) 0
V4 V3+ 8 d 0.9367 0.0015(1) 0.1291 . 1. 0
P1 P5+ 4 c 0.5132(1) 0.25 0.8025(1) . 1. 0
P2 P5+ 4 c 0.8880(1) 0.25 0.9531(1) . 1. 0
P3 P5+ 4 c 0.7412(1) 0.25 0.1746(1) . 1. 0
P4 P5+ 4 c 0.4058(1) 0.25 0.0477(1) . 1. 0
O1 O2- 8 d 0.4476(1) 0.0566(3) 0.8162(1) . 1. 0
O2 O2- 8 d 0.3457(1) 0.4410(3) 0.0187(1) . 1. 0
O3 O2- 8 d 0.1972(1) -.0466(3) 0.8280(1) . 1. 0
O4 O2- 8 d 0.4318(1) 0.0469(3) 0.5840(1) . 1. 0
O5 O2- 4 c 0.1147(2) 0.25 0.9359(2) . 1. 0
O6 O2- 4 c 0.2791(2) 0.25 0.5623(2) . 1. 0
O7 O2- 4 c 0.6632(2) 0.25 0.1058(2) . 1. 0
O8 O2- 4 c 0.1053(2) 0.25 0.6449(2) . 1. 0
O9 O2- 4 c 0.4146(2) 0.25 0.1425(2) . 1. 0
O10 O2- 4 c 0.5054(2) 0.25 0.0065(2) . 1. 0
O11 O2- 4 c 0.6790(2) 0.25 0.2541(2) . 1. 0
O12 O2- 4 c 0.4848(2) 0.25 0.3056(2) . 1. 0
O13 O2- 4 c 0.0466(2) 0.25 0.7909(2) . 1. 0
O14 O2- 4 c 0.9115(2) 0.25 0.0478(2) . 1. 0
H1 H1+ 4 c 0.1105(47) 0.25 0.9977(7) 3.95 1. 0
loop_
_atom_site_aniso_label
_atom_site_aniso_type_symbol
_atom_site_aniso_U_11
_atom_site_aniso_U_22
_atom_site_aniso_U_33
_atom_site_aniso_U_12
_atom_site_aniso_U_13
_atom_site_aniso_U_23
Na1 Na1+ 0.0214(8) 0.0207(9) 0.0219(9) 0 -.0076(7) 0
Na2 Na1+ 0.0330(13) 0.0749(24) 0.0425(16) 0.0097(13) 0.0022(10) -.0434(16)
Na3 Na1+ 0.0603(80) 0.159(17) 0.0340(61) 0 0.0218(54) 0
V1 V3+ 0.0054(2) 0.0037(2) 0.0065(2) 0 -.0001(2) 0
V2 V3+ 0.0071(2) 0.0040(2) 0.0092(11) 0 -.0016(3) 0
V3 V3+ 0.0071(2) 0.0040(2) 0.0092(11) 0 -.0016(3) 0.0(1)
V4 V3+ 0.0063(2) 0.0064(2) 0.0063(2) 0.0011(1) 0.0009(1) 0.0007(1)
P1 P5+ 0.0069(3) 0.0043(3) 0.0058(3) 0 0.0003(3) 0
P2 P5+ 0.0048(3) 0.0057(3) 0.0059(3) 0 0.0007(3) 0
P3 P5+ 0.0060(3) 0.0057(3) 0.0072(3) 0 0.0015(3) 0
P4 P5+ 0.0068(3) 0.0048(3) 0.0100(4) 0 -.0024(3) 0
O1 O2- 0.0118(7) 0.0049(7) 0.0144(8) -.0012(6) 0.0024(6) 0.0000(6)
O2 O2- 0.0115(7) 0.0036(7) 0.0154(8) 0.0016(6) -.0035(6) 0.0009(6)
O3 O2- 0.0085(7) 0.0058(7) 0.0185(9) 0.0021(6) 0.0028(6) 0.0012(7)
O4 O2- 0.0091(7) 0.0079(8) 0.0119(8) 0.0010(6) -.0032(6) 0.0031(6)
O5 O2- 0.0120(11) 0.0081(11) 0.0077(10) 0 -.0011(9) 0
O6 O2- 0.006(1) 0.0118(12) 0.0144(12) 0 -.0005(9) 0
O7 O2- 0.0119(11) 0.0097(11) 0.0059(10) 0 -.0016(9) 0
O8 O2- 0.0119(11) 0.0102(11) 0.0096(11) 0 0.0038(9) 0
O9 O2- 0.0246(14) 0.0136(13) 0.0108(12) 0 -.0094(11) 0
O10 O2- 0.0095(12) 0.0160(14) 0.0404(19) 0 0.0057(12) 0
O11 O2- 0.008(1) 0.0108(11) 0.007(1) 0 0.0022(8) 0
O12 O2- 0.0149(11) 0.0075(11) 0.0099(11) 0 0.0012(9) 0
O13 O2- 0.0105(10) 0.0054(10) 0.0064(10) 0 -.0011(8) 0
O14 O2- 0.0168(12) 0.0055(11) 0.0068(10) 0 -.0004(9) 0
#End of TTdata_69025-ICSD