
#(C) 2019 by FIZ Karlsruhe - Leibniz Institute for Information Infrastructure.  All rights reserved.
data_69032-ICSD
_database_code_ICSD 69032
_audit_creation_date 1992-01-20
_chemical_name_systematic
'Sodium distrontium hexafluorochromate(III) difluoride'
_chemical_formula_structural 'Na Sr2 (Cr F6) F2'
_chemical_formula_sum 'Cr1 F8 Na1 Sr2'
_exptl_crystal_density_diffrn 4.
_publ_section_title 'NaSr2CrF8: a new structure with two "independent F(-)"'
loop_
_citation_id
_citation_journal_full
_citation_year
_citation_journal_volume
_citation_page_first
_citation_page_last
_citation_journal_id_ASTM
primary 'Journal of Solid State Chemistry' 1990 87 344 349 JSSCBI
loop_
_publ_author_name
'Hemon, A.'
'Courbion, G.'
_cell_length_a 7.7388(6)
_cell_length_b 6.2756(5)
_cell_length_c 14.827(2)
_cell_angle_alpha 90.
_cell_angle_beta 112.03(1)
_cell_angle_gamma 90.
_cell_volume 667.51
_cell_formula_units_Z 4
_symmetry_space_group_name_H-M 'P 1 21/c 1'
_symmetry_Int_Tables_number 14
_refine_ls_R_factor_all 0.04
loop_
_symmetry_equiv_pos_site_id
_symmetry_equiv_pos_as_xyz
1 'x, -y+1/2, z+1/2'
2 '-x, -y, -z'
3 '-x, y+1/2, -z+1/2'
4 'x, y, z'
loop_
_atom_type_symbol
_atom_type_oxidation_number
Sr2+ 2
Cr3+ 3
Na1+ 1
F1- -1
loop_
_atom_site_label
_atom_site_type_symbol
_atom_site_symmetry_multiplicity
_atom_site_Wyckoff_symbol
_atom_site_fract_x
_atom_site_fract_y
_atom_site_fract_z
_atom_site_B_iso_or_equiv
_atom_site_occupancy
_atom_site_attached_hydrogens
Sr1 Sr2+ 4 e 0.09900(4) 0.27654(5) 0.19682(2) . 1. 0
Sr2 Sr2+ 4 e 0.41468(4) 0.84217(5) 0.35578(2) . 1. 0
Cr1 Cr3+ 4 e 0.69368(7) 0.27844(8) 0.40287(4) . 1. 0
Na1 Na1+ 4 e 0.8553(3) 0.8234(3) 0.0585(1) . 1. 0
F1 F1- 4 e 0.1746(3) 0.8737(4) 0.1771(2) . 1. 0
F2 F1- 4 e 0.8546(3) 0.5527(3) 0.1560(1) . 1. 0
F3 F1- 4 e 0.0824(3) 0.8014(4) 0.9848(2) . 1. 0
F4 F1- 4 e 0.8147(3) 0.0540(3) 0.1736(2) . 1. 0
F5 F1- 4 e 0.6458(3) 0.9319(3) 0.9162(2) . 1. 0
F6 F1- 4 e 0.5266(3) 0.7358(4) 0.2149(2) . 1. 0
F7 F1- 4 e 0.7456(3) 0.5147(3) 0.8898(2) . 1. 0
F8 F1- 4 e 0.4531(3) 0.6880(4) 0.0280(2) . 1. 0
loop_
_atom_site_aniso_label
_atom_site_aniso_type_symbol
_atom_site_aniso_U_11
_atom_site_aniso_U_22
_atom_site_aniso_U_33
_atom_site_aniso_U_12
_atom_site_aniso_U_13
_atom_site_aniso_U_23
Sr1 Sr2+ 0.0099(1) 0.0084(2) 0.0090(2) -.0003(1) 0.0040(1) 0.0007(1)
Sr2 Sr2+ 0.0081(1) 0.0096(1) 0.0085(1) 0.0008(1) 0.0039(1) 0.0004(1)
Cr1 Cr3+ 0.0096(2) 0.0070(2) 0.0060(2) -.0005(1) 0.0034(2) -.0002(1)
Na1 Na1+ 0.0231(8) 0.0201(8) 0.0139(7) 0.0022(6) 0.0059(6) 0.0042(6)
F1 F1- 0.0139(8) 0.0193(10) 0.0097(8) 0.0032(7) 0.0058(7) -.0005(7)
F2 F1- 0.0107(7) 0.0110(8) 0.0110(8) -.0004(6) 0.0036(7) -.0001(7)
F3 F1- 0.0153(9) 0.0169(10) 0.0082(8) -.0002(7) 0.0022(7) -.0008(7)
F4 F1- 0.0130(8) 0.0134(9) 0.0116(8) 0.0007(7) 0.0048(7) -.0003(7)
F5 F1- 0.0186(9) 0.0082(8) 0.0189(10) -.0042(7) 0.0012(8) 0.0010(7)
F6 F1- 0.0117(9) 0.0204(10) 0.0106(9) 0.0024(7) 0.0029(7) 0.0014(8)
F7 F1- 0.0164(8) 0.0081(8) 0.0218(10) -.0008(7) 0.0114(8) 0.0048(7)
F8 F1- 0.0195(10) 0.0189(10) 0.0114(8) 0.0047(8) 0.0097(7) -.0006(8)
#End of TTdata_69032-ICSD