
#(C) 2019 by FIZ Karlsruhe - Leibniz Institute for Information Infrastructure.  All rights reserved.
data_69086-ICSD
_database_code_ICSD 69086
_audit_creation_date 1992-01-20
_audit_update_record 2012-08-01
_chemical_name_systematic 'Sodium dimolybdo(V)triphosphate(V) - zeta'
_chemical_formula_structural 'Na (Mo2 P3 O13)'
_chemical_formula_sum 'Mo2 Na1 O13 P3'
_chemical_name_structure_type AgMo2O2P3O11
_exptl_crystal_density_diffrn 3.47
_publ_section_title
'zeta-Na Mo2 P3 O13, a second form of pentavalent molybdenum sodium phosphate'
loop_
_citation_id
_citation_journal_full
_citation_year
_citation_journal_volume
_citation_page_first
_citation_page_last
_citation_journal_id_ASTM
primary 'Journal of Solid State Chemistry' 1990 89 31 38 JSSCBI
loop_
_publ_author_name
'Costentin, G.'
'Borel, M.M.'
'Grandin, A.'
'Leclaire, A.'
'Raveau, B.'
_cell_length_a 6.3682(5)
_cell_length_b 22.2546(11)
_cell_length_c 8.6172(8)
_cell_angle_alpha 90.
_cell_angle_beta 126.139(7)
_cell_angle_gamma 90.
_cell_volume 986.26
_cell_formula_units_Z 4
_symmetry_space_group_name_H-M 'P 1 21/c 1'
_symmetry_Int_Tables_number 14
_refine_ls_R_factor_all 0.062
loop_
_symmetry_equiv_pos_site_id
_symmetry_equiv_pos_as_xyz
1 'x, -y+1/2, z+1/2'
2 '-x, -y, -z'
3 '-x, y+1/2, -z+1/2'
4 'x, y, z'
loop_
_atom_type_symbol
_atom_type_oxidation_number
Mo5+ 5
P5+ 5
Na1+ 1
O2- -2
loop_
_atom_site_label
_atom_site_type_symbol
_atom_site_symmetry_multiplicity
_atom_site_Wyckoff_symbol
_atom_site_fract_x
_atom_site_fract_y
_atom_site_fract_z
_atom_site_B_iso_or_equiv
_atom_site_occupancy
_atom_site_attached_hydrogens
Mo1 Mo5+ 4 e 0.2559(1) 0.20833(4) 0.04173(9) . 1. 0
Mo2 Mo5+ 4 e 0.5520(1) 0.43650(4) 0.2793(1) . 1. 0
P1 P5+ 4 e 0.6439(4) 0.2964(1) 0.4170(3) . 1. 0
P2 P5+ 4 e 0.5319(4) 0.5827(1) 0.1516(3) . 1. 0
P3 P5+ 4 e 0.0208(4) 0.5995(1) 0.7976(3) . 1. 0
Na1 Na1+ 4 e 0.9661(9) 0.1306(3) 0.3016(7) . 1. 0
O1 O2- 4 e 0.189(2) 0.2764(4) -.057(1) . 1. 0
O2 O2- 4 e 0.578(1) 0.1876(4) 0.0600(9) . 1. 0
O3 O2- 4 e -.060(1) 0.2076(5) 0.046(1) . 1. 0
O4 O2- 4 e 0.059(1) 0.1608(4) 0.7953(9) . 1. 0
O5 O2- 4 e 0.510(1) 0.2376(3) 0.314(1) . 1. 0
O6 O2- 4 e 0.309(1) 0.1243(4) 0.180(1) . 1. 0
O7 O2- 4 e 0.716(2) 0.4408(5) 0.519(1) . 1. 0
O8 O2- 4 e 0.482(1) 0.5225(4) 0.209(1) . 1. 0
O9 O2- 4 e 0.553(1) 0.3475(3) 0.2691(9) . 1. 0
O10 O2- 4 e 0.186(1) 0.4327(4) 0.200(1) . 1. 0
O11 O2- 4 e 0.868(1) 0.4418(4) 0.2770(9) . 1. 0
O12 O2- 4 e 0.366(1) 0.4229(4) -.0332(8) . 1. 0
O13 O2- 4 e 0.247(1) 0.6130(4) 0.0188(9) . 1. 0
loop_
_atom_site_aniso_label
_atom_site_aniso_type_symbol
_atom_site_aniso_beta_11
_atom_site_aniso_beta_22
_atom_site_aniso_beta_33
_atom_site_aniso_beta_12
_atom_site_aniso_beta_13
_atom_site_aniso_beta_23
Mo1 Mo5+ 0.00242(9) 0.00022(1) 0.00132(5) -.00005(4) 0.00090(6) -.00004(3)
Mo2 Mo5+ 0.0040(1) 0.00016(1) 0.00227(6) -.00003(4) 0.00210(6) 0.00006(3)
P1 P5+ 0.0035(4) 0.00021(3) 0.0020(2) -.0001(1) 0.0015(2) 0.0000(1)
P2 P5+ 0.0046(4) 0.00018(3) 0.0020(2) 0.0002(1) 0.0018(2) 0.0001(1)
P3 P5+ 0.0028(4) 0.00032(3) 0.0023(2) 0.0002(1) 0.0018(2) 0.00005(9)
Na1 Na1+ 0.009(1) 0.0010(1) 0.0059(6) 0.0005(3) 0.0020(6) 0.0002(3)
O1 O2- 0.015(2) 0.0003(1) 0.0006(7) 0.0002(4) 0.0005(9) 0.0000(3)
O2 O2- 0.007(1) 0.0004(1) 0.0041(7) 0.0006(3) 0.0045(6) 0.0006(3)
O3 O2- 0.002(1) 0.0009(1) 0.0042(7) -.0005(4) 0.0015(6) -.0003(4)
O4 O2- 0.009(1) 0.0005(1) 0.0031(7) -.0007(4) 0.0030(6) -.0007(3)
O5 O2- 0.010(2) 0.00016(9) 0.0015(7) -.0002(4) 0.000(1) -.0002(3)
O6 O2- 0.010(2) 0.0005(1) 0.0023(8) -.0003(4) 0.001(1) 0.0003(3)
O7 O2- 0.013(2) 0.0008(2) 0.0029(8) 0.0008(5) 0.003(1) 0.0001(4)
O8 O2- 0.012(1) 0.00014(9) 0.010(1) 0.0001(3) 0.008(1) 0.0002(3)
O9 O2- 0.015(1) 0.00027(9) 0.0028(6) 0.0006(4) 0.0050(6) 0.0005(3)
O10 O2- 0.007(1) 0.0006(1) 0.0073(8) -.0001(4) 0.0055(6) 0.0002(3)
O11 O2- 0.004(1) 0.0005(1) 0.0045(7) -.0002(3) 0.0025(6) -.0002(3)
O12 O2- 0.006(1) 0.0006(1) 0.0020(6) -.0002(3) 0.0030(6) -.0002(3)
O13 O2- 0.006(1) 0.0005(1) 0.0020(7) 0.0011(4) 0.0010(6) 0.0002(3)
#End of TTdata_69086-ICSD