
#(C) 2019 by FIZ Karlsruhe - Leibniz Institute for Information Infrastructure.  All rights reserved.
data_69087-ICSD
_database_code_ICSD 69087
_audit_creation_date 1992-01-20
_audit_update_record 2012-08-01
_chemical_name_systematic 'Tetrasodium niobium phosphate (4/8/6)'
_chemical_formula_structural 'Na4 Nb8 (P6 O35)'
_chemical_formula_sum 'Na4 Nb8 O35 P6'
_exptl_crystal_density_diffrn 3.8
_publ_section_title

;
A niobium phosphate bronze closely related to the tungsten phosphate bronzes
family: Na4Nb8P6O35
;
loop_
_citation_id
_citation_journal_full
_citation_year
_citation_journal_volume
_citation_page_first
_citation_page_last
_citation_journal_id_ASTM
primary 'Journal of Solid State Chemistry' 1990 89 75 82 JSSCBI
loop_
_publ_author_name
'Benabbas, A.'
'Borel, M.M.'
'Grandin, A.'
'Leclaire, A.'
'Raveau, B.'
_cell_length_a 8.4992(7)
_cell_length_b 15.3390(8)
_cell_length_c 10.5913(9)
_cell_angle_alpha 90.
_cell_angle_beta 90.
_cell_angle_gamma 90.
_cell_volume 1380.78
_cell_formula_units_Z 2
_symmetry_space_group_name_H-M 'P b a m'
_symmetry_Int_Tables_number 55
_refine_ls_R_factor_all 0.036
loop_
_symmetry_equiv_pos_site_id
_symmetry_equiv_pos_as_xyz
1 'x+1/2, -y+1/2, z'
2 '-x+1/2, y+1/2, z'
3 'x, y, -z'
4 '-x, -y, -z'
5 '-x+1/2, y+1/2, -z'
6 'x+1/2, -y+1/2, -z'
7 '-x, -y, z'
8 'x, y, z'
loop_
_atom_type_symbol
_atom_type_oxidation_number
Nb4+ 4.5
P5+ 5
Na1+ 1
O2- -2
loop_
_atom_site_label
_atom_site_type_symbol
_atom_site_symmetry_multiplicity
_atom_site_Wyckoff_symbol
_atom_site_fract_x
_atom_site_fract_y
_atom_site_fract_z
_atom_site_B_iso_or_equiv
_atom_site_occupancy
_atom_site_attached_hydrogens
Nb1 Nb4+ 8 i 0.09915(9) 0.10776(5) 0.18127(7) . 1. 0
Nb2 Nb4+ 4 h 0.0776(1) 0.42436(8) 0.5 . 1. 0
Nb3 Nb4+ 8 i -.0016(3) 0.4877(1) 0.1735(1) . 0.5 0
P1 P5+ 4 h 0.1972(4) 0.0928(2) 0.5 . 1. 0
P2 P5+ 8 i 0.2122(3) 0.3218(2) 0.2336(2) . 1. 0
Na1 Na1+ 4 h 0.4102(8) 0.2916(4) 0.5 . 1. 0
Na2 Na1+ 4 g 0.441(1) 0.2103(6) 0 . 1. 0
O1 O2- 4 g 0.075(1) 0.1178(5) 0 0.9(1) 1. 0
O2 O2- 8 i 0.1074(7) 0.1223(4) 0.3809(5) 1.1(1) 1. 0
O3 O2- 8 i 0.200(1) 0.2237(7) 0.184(1) 0.8(2) 0.5 0
O4 O2- 8 i 0.133(1) 0.2460(8) 0.177(1) 1.2(2) 0.5 0
O5 O2- 8 i 0.391(1) 0.3158(7) 0.209(1) 1.0(2) 0.5 0
O6 O2- 8 i 0.372(1) 0.3510(8) 0.207(1) 1.8(3) 0.5 0
O7 O2- 8 i 0.285(1) 0.0484(7) 0.176(1) 1.2(2) 0.5 0
O8 O2- 8 i 0.316(1) 0.0890(7) 0.179(1) 1.2(2) 0.5 0
O9 O2- 8 i 0.036(1) -.0073(8) 0.1976(9) 0.7(2) 0.5 0
O10 O2- 4 f 0 0.5 0.3571(8) 1.5(2) 1. 0
O11 O2- 4 h 0.364(1) 0.1384(6) 0.5 1.2(2) 1. 0
O12 O2- 8 i 0.1761(7) 0.3292(4) 0.3744(6) 1.3(1) 1. 0
O13 O2- 4 h 0.221(1) -.0066(6) 0.5 1.0(1) 1. 0
O14 O2- 2 c 0 0.5 0 1.9(3) 1. 0
O15 O2- 8 i 0.087(2) 0.3736(8) 0.163(1) 1.8(2) 0.5 0
O16 O2- 8 i 0.141(1) 0.4025(7) 0.162(1) 1.2(2) 0.5 0
loop_
_atom_site_aniso_label
_atom_site_aniso_type_symbol
_atom_site_aniso_beta_11
_atom_site_aniso_beta_22
_atom_site_aniso_beta_33
_atom_site_aniso_beta_12
_atom_site_aniso_beta_13
_atom_site_aniso_beta_23
Nb1 Nb4+ 0.00305(7) 0.00098(2) 0.00103(4) 0.00015(5) 0.0001(1) -.00012(5)
Nb2 Nb4+ 0.0016(1) 0.00211(5) 0.00092(7) -.00025(9) 0 0
Nb3 Nb4+ 0.0020(1) 0.00099(7) 0.00066(7) 0.0001(1) 0.0001(3) -.00005(9)
P1 P5+ 0.0021(4) 0.0019(2) 0.0009(2) 0.0002(3) 0 0
P2 P5+ 0.0042(3) 0.00143(9) 0.0015(2) -.0016(2) -.0001(2) -.0001(2)
Na1 Na1+ 0.0069(8) 0.0030(3) 0.0054(6) -.0010(5) 0 0
Na2 Na1+ 0.021(2) 0.0080(5) 0.0071(8) -.0015(9) 0 0
#End of TTdata_69087-ICSD