
#(C) 2019 by FIZ Karlsruhe - Leibniz Institute for Information Infrastructure.  All rights reserved.
data_69108-ICSD
_database_code_ICSD 69108
_audit_creation_date 1992-01-20
_chemical_name_systematic 'Sodium titanium oxide (0.5/2/4)'
_chemical_formula_structural 'Na0.5 Ti2 O4'
_chemical_formula_sum 'Na0.5 O4 Ti2'
_exptl_crystal_density_diffrn 3.6
_publ_section_title 'Crystal structure of NaxTi2O4 with 0.50<x<0.57'
loop_
_citation_id
_citation_journal_full
_citation_year
_citation_journal_volume
_citation_page_first
_citation_page_last
_citation_journal_id_ASTM
primary 'Journal of Solid State Chemistry' 1991 90 92 101 JSSCBI
loop_
_publ_author_name
'Akimoto, J.'
'Takei, H.'
_cell_length_a 9.616(3)
_cell_length_b 11.134(5)
_cell_length_c 2.9541(11)
_cell_angle_alpha 90.
_cell_angle_beta 90.
_cell_angle_gamma 90.
_cell_volume 316.28
_cell_formula_units_Z 4
_symmetry_space_group_name_H-M 'P n a m'
_symmetry_Int_Tables_number 62
_refine_ls_R_factor_all 0.047
loop_
_symmetry_equiv_pos_site_id
_symmetry_equiv_pos_as_xyz
1 'x+1/2, -y+1/2, z'
2 'x, y, -z+1/2'
3 '-x+1/2, y+1/2, z+1/2'
4 '-x, -y, -z'
5 '-x+1/2, y+1/2, -z'
6 '-x, -y, z+1/2'
7 'x+1/2, -y+1/2, -z+1/2'
8 'x, y, z'
loop_
_atom_type_symbol
_atom_type_oxidation_number
Na1+ 1
Ti3+ 3.75
O2- -2
loop_
_atom_site_label
_atom_site_type_symbol
_atom_site_symmetry_multiplicity
_atom_site_Wyckoff_symbol
_atom_site_fract_x
_atom_site_fract_y
_atom_site_fract_z
_atom_site_B_iso_or_equiv
_atom_site_occupancy
_atom_site_attached_hydrogens
Na1 Na1+ 4 c 0.0803(11) 0.6048(10) 0.25 . 0.33(1) 0
Na2 Na1+ 4 c 0.4103(18) 0.0752(13) 0.25 . 0.17(1) 0
Ti1 Ti3+ 4 c 0.25850(9) 0.83690(8) 0.25 . 1. 0
Ti2 Ti3+ 4 c 0.02124(8) 0.12408(7) 0.25 . 1. 0
O1 O2- 4 c 0.3682(4) 0.6899(3) 0.25 . 1. 0
O2 O2- 4 c 0.1500(3) 0.4044(3) 0.25 . 1. 0
O3 O2- 4 c 0.3683(3) 0.2670(3) 0.25 . 1. 0
O4 O2- 4 c 0.0995(3) 0.9573(3) 0.25 . 1. 0
loop_
_atom_site_aniso_label
_atom_site_aniso_type_symbol
_atom_site_aniso_beta_11
_atom_site_aniso_beta_22
_atom_site_aniso_beta_33
_atom_site_aniso_beta_12
_atom_site_aniso_beta_13
_atom_site_aniso_beta_23
Na1 Na1+ 0.0095(16) 0.0068(11) 0.24(4) 0.002(1) 0 0
Na2 Na1+ 0.0053(19) 0.0015(10) 0.17(5) -.0008(11) 0 0
Ti1 Ti3+ 0.00207(7) 0.00227(6) 0.0197(8) 0.00060(5) 0 0
Ti2 Ti3+ 0.00154(6) 0.00127(4) 0.0198(7) -.00001(4) 0 0
O1 O2- 0.0027(3) 0.0016(2) 0.021(3) 0.0010(2) 0 0
O2 O2- 0.0023(3) 0.0018(2) 0.019(3) 0.0007(2) 0 0
O3 O2- 0.0020(3) 0.0015(2) 0.020(3) 0.0000(2) 0 0
O4 O2- 0.0016(3) 0.0014(2) 0.017(3) 0.0003(2) 0 0
#End of TTdata_69108-ICSD