
#(C) 2019 by FIZ Karlsruhe - Leibniz Institute for Information Infrastructure.  All rights reserved.
data_69113-ICSD
_database_code_ICSD 69113
_audit_creation_date 1992-01-20
_audit_update_record 2012-08-01
_chemical_name_systematic 'Dicadmium disodium cyclo-hexaphosphate 14-hydrate'
_chemical_formula_structural 'Cd2 Na2 (P6 O18) (H2 O)14'
_chemical_formula_sum 'H28 Cd2 Na2 O32 P6'
_exptl_crystal_density_diffrn 2.37
_cell_measurement_temperature 294.
_publ_section_title

;
Crystal chemistry of cyclo-hexaphosphates. V. Structure of cadmium sodium
cyclo-hexaphosphate tetradecahydrate
;
loop_
_citation_id
_citation_journal_full
_citation_year
_citation_journal_volume
_citation_page_first
_citation_page_last
_citation_journal_id_ASTM
primary 'Acta Crystallographica, Section C: Crystal Structure Communications'
1990 46 10 13 ACSCEE
loop_
_publ_author_name
'Averbuch-Pouchot, M.T.'
_cell_length_a 7.709(1)
_cell_length_b 11.028(6)
_cell_length_c 9.231(2)
_cell_angle_alpha 108.25(5)
_cell_angle_beta 110.06(5)
_cell_angle_gamma 79.77(5)
_cell_volume 697.91
_cell_formula_units_Z 1
_symmetry_space_group_name_H-M 'P -1'
_symmetry_Int_Tables_number 2
_refine_ls_R_factor_all 0.019
loop_
_symmetry_equiv_pos_site_id
_symmetry_equiv_pos_as_xyz
1 '-x, -y, -z'
2 'x, y, z'
loop_
_atom_type_symbol
_atom_type_oxidation_number
Na1+ 1
Cd2+ 2
P5+ 5
O2- -2
H1+ 1
loop_
_atom_site_label
_atom_site_type_symbol
_atom_site_symmetry_multiplicity
_atom_site_Wyckoff_symbol
_atom_site_fract_x
_atom_site_fract_y
_atom_site_fract_z
_atom_site_B_iso_or_equiv
_atom_site_occupancy
_atom_site_attached_hydrogens
Na1 Na1+ 1 g 0 0.5 0.5 . 1. 0
Na2 Na1+ 2 i 0.59041(1) 0.39358(3) 0.63315(4) . 0.5 0
Cd1 Cd2+ 2 i 0.59041(1) 0.39358(3) 0.63315(4) . 0.5 0
Cd2 Cd2+ 1 a 0 0 0 . 1. 0
P1 P5+ 2 i 0.84896(7) 0.80190(5) 0.14057(6) . 1. 0
P2 P5+ 2 i 0.95844(8) 0.20697(5) 0.53099(6) . 1. 0
P3 P5+ 2 i 0.70780(7) 0.07088(5) 0.23180(6) . 1. 0
O1 O2- 2 i 0.2407(2) 0.3167(2) 0.8917(2) . 1. 0
O2 O2- 2 i 0.0769(2) 0.1831(2) -.0181(2) . 1. 0
O3 O2- 2 i 0.3007(2) 0.0808(1) 0.8205(2) . 1. 0
O4 O2- 2 i -.0159(2) 0.1754(2) 0.6959(2) . 1. 0
O5 O2- 2 i 0.1526(3) 0.6678(2) 0.4698(2) . 1. 0
O6 O2- 2 i 0.1379(2) 0.1887(2) 0.4980(2) . 1. 0
O7 O2- 2 i 0.8332(2) 0.0916(2) 0.4148(2) . 1. 0
O8 O2- 2 i 0.1899(2) 0.8905(2) 0.8565(2) . 1. 0
O9 O2- 2 i 0.5179(2) 0.1308(2) 0.2210(2) . 1. 0
O10 O2- 2 i 0.6284(3) 0.3279(2) 0.0486(2) . 1. 0
O11 O2- 2 i 0.5350(3) 0.1945(2) 0.6327(3) . 1. 0
O12 O2- 2 i 0.2193(3) 0.5607(2) 0.1080(2) . 1. 0
O13 O2- 2 i 0.6952(3) 0.5446(2) 0.3075(2) . 1. 0
O14 O2- 2 i 0.7568(2) 0.9819(2) 0.7602(2) . 1. 0
O15 O2- 2 i 0.4231(3) 0.3831(2) 0.3631(2) . 1. 0
O16 O2- 2 i 0.9488(5) 0.5980(4) 0.7600(5) . 0.5 0
O17 O2- 2 i 0.0721(5) 0.3402(3) 0.2854(4) . 0.5 0
H1 H1+ 2 i 0.682(6) 0.263(4) 0.069(5) 3.(1) 1. 0
H2 H1+ 2 i 0.540(6) 0.319(4) 0.010(5) 3.(1) 1. 0
H3 H1+ 2 i 0.397(5) 0.860(4) 0.317(5) 2.(1) 1. 0
H4 H1+ 2 i 0.553(6) 0.822(4) 0.392(5) 3.(1) 1. 0
H5 H1+ 2 i 0.775(6) 0.514(4) 0.950(5) 3.(1) 1. 0
H6 H1+ 2 i 0.761(5) 0.399(4) 0.932(5) 2.(1) 1. 0
H7 H1+ 2 i 0.685(5) 0.483(4) 0.244(5) 2.(1) 1. 0
H8 H1+ 2 i 0.287(5) 0.400(4) 0.723(4) 2.2(9) 1. 0
H9 H1+ 2 i 0.216(5) 0.071(4) 0.323(5) 2.4(9) 1. 0
H10 H1+ 2 i 0.313(6) 0.053(4) 0.231(5) 2.(1) 1. 0
H11 H1+ 2 i 0.469(6) 0.308(4) 0.313(5) 3.(1) 1. 0
H12 H1+ 2 i 0.327(6) 0.374(4) 0.342(5) 4.(1) 1. 0
H13 H1+ 2 i 0.98(1) 0.531(8) 0.80(1) 3.(2) 0.5 0
H14 H1+ 2 i 0.958(6) 0.680(4) 0.825(5) 3.(1) 1. 0
H15 H1+ 2 i 0.91(1) 0.717(8) 0.677(9) 2.(2) 0.5 0
loop_
_atom_site_aniso_label
_atom_site_aniso_type_symbol
_atom_site_aniso_beta_11
_atom_site_aniso_beta_22
_atom_site_aniso_beta_33
_atom_site_aniso_beta_12
_atom_site_aniso_beta_13
_atom_site_aniso_beta_23
Na1 Na1+ 0.0101(2) 0.0060(1) 0.0079(2) -.0013(2) 0.0034(2) 0.0016(1)
Na2 Na1+ 0.00743(4) 0.00405(2) 0.00671(3) -.00011(3) 0.00263(3) 0.00157(2)
Cd1 Cd2+ 0.00743(4) 0.00405(2) 0.00671(3) -.00011(3) 0.00263(3) 0.00157(2)
Cd2 Cd2+ 0.00662(3) 0.00312(1) 0.00493(2) -.00033(2) 0.00324(2) 0.00112(2)
P1 P5+ 0.00581(7) 0.00234(3) 0.00348(5) -.00091(4) 0.00128(5) 0.00052(3)
P2 P5+ 0.00616(7) 0.00263(3) 0.00393(5) -.00023(4) 0.00090(5) 0.00073(4)
P3 P5+ 0.00447(6) 0.00266(3) 0.00384(5) -.00008(4) 0.00160(4) 0.00069(3)
O1 O2- 0.0092(6) 0.0029(1) 0.0069(2) -.0019(2) 0.0024(2) 0.0010(1)
O2 O2- 0.0093(2) 0.0033(1) 0.0047(2) -.0007(2) 0.0033(2) 0.0010(1)
O3 O2- 0.0056(2) 0.0028(1) 0.0051(2) -.0004(1) 0.0016(2) 0.0006(1)
O4 O2- 0.0058(2) 0.0043(1) 0.0039(2) -.0009(2) 0.0007(2) 0.0012(1)
O5 O2- 0.0103(3) 0.0029(1) 0.0088(2) 0.0006(3) 0.0018(2) 0.0017(2)
O6 O2- 0.0086(2) 0.0062(1) 0.0069(2) -.0011(2) 0.0037(2) 0.0018(2)
O7 O2- 0.0103(3) 0.0032(1) 0.0041(2) -.0016(2) -.0002(2) 0.0006(1)
O8 O2- 0.0082(2) 0.0035(1) 0.0070(2) 0.0001(2) 0.0049(2) 0.0014(1)
O9 O2- 0.0053(2) 0.0042(1) 0.0086(2) 0.0008(2) 0.0031(2) 0.0017(2)
O10 O2- 0.0104(3) 0.0050(1) 0.0103(2) -.0014(2) 0.0006(2) 0.0032(2)
O11 O2- 0.0105(3) 0.0064(2) 0.0179(3) -.0005(2) 0.0034(3) 0.0059(2)
O12 O2- 0.0176(4) 0.0054(2) 0.0075(2) -.0006(2) 0.0042(2) 0.0010(2)
O13 O2- 0.0122(3) 0.0040(1) 0.0107(2) -.0007(2) 0.0056(2) 0.0015(2)
O14 O2- 0.0078(2) 0.0055(1) 0.0071(2) -.0016(2) 0.0024(2) 0.0017(1)
O15 O2- 0.0090(3) 0.0064(2) 0.0097(3) -.0005(2) 0.0035(2) -.0011(2)
O16 O2- 0.0106(7) 0.0055(3) 0.0073(5) -.0009(4) 0.0023(5) 0.0001(3)
O17 O2- 0.0167(6) 0.0050(3) 0.0083(4) -.0029(3) 0.0059(4) 0.0005(3)
#End of TTdata_69113-ICSD