
#(C) 2019 by FIZ Karlsruhe - Leibniz Institute for Information Infrastructure.  All rights reserved.
data_69305-ICSD
_database_code_ICSD 69305
_audit_creation_date 1992-08-20
_audit_update_record 2012-08-01
_chemical_name_systematic 'Sodium iron(III) diphosphate(V)'
_chemical_formula_structural 'Na Fe (P2 O7)'
_chemical_formula_sum 'Fe1 Na1 O7 P2'
_chemical_name_structure_type Mg2P2O7
_exptl_crystal_density_diffrn 3.28
_cell_measurement_temperature 300.
_publ_section_title
'Moessbauer-effect, magnetic and neutron-diffraction study of Na Fe P2 O7'
loop_
_citation_id
_citation_journal_full
_citation_year
_citation_journal_volume
_citation_page_first
_citation_page_last
_citation_journal_id_ASTM
primary 'Physical Review B: Condensed Matter and Materials Physics' 1990 42 25
32 PRBMDO
loop_
_publ_author_name
'Mercader, R.C.'
'Terminiello, L.'
'Long, G.-J.'
'Reichel, D.G.'
'Dickhaus, K.'
'Zysler, R.'
'Sanchez, R.'
'Tovar, M.'
_cell_length_a 7.3116(7)
_cell_length_b 7.8861(7)
_cell_length_c 9.5583(9)
_cell_angle_alpha 90.
_cell_angle_beta 111.820(7)
_cell_angle_gamma 90.
_cell_volume 511.65
_cell_formula_units_Z 4
_symmetry_space_group_name_H-M 'P 1 21/c 1'
_symmetry_Int_Tables_number 14
_refine_ls_R_factor_all 0.041
loop_
_symmetry_equiv_pos_site_id
_symmetry_equiv_pos_as_xyz
1 'x, -y+1/2, z+1/2'
2 '-x, -y, -z'
3 '-x, y+1/2, -z+1/2'
4 'x, y, z'
loop_
_atom_type_symbol
_atom_type_oxidation_number
Na1+ 1
Fe3+ 3
P5+ 5
O2- -2
loop_
_atom_site_label
_atom_site_type_symbol
_atom_site_symmetry_multiplicity
_atom_site_Wyckoff_symbol
_atom_site_fract_x
_atom_site_fract_y
_atom_site_fract_z
_atom_site_B_iso_or_equiv
_atom_site_occupancy
_atom_site_attached_hydrogens
Na1 Na1+ 4 e 0.289(2) 0.473(2) 0.300(1) 0.54(28) 1. 0
Fe1 Fe3+ 4 e 0.261(1) 0.008(1) 0.248(1) 0.10(7) 1. 0
P1 P5+ 4 e 0.078(2) 0.251(1) 0.458(1) 0.1(1) 1. 0
P2 P5+ 4 e 0.674(1) 0.212(1) 0.453(1) 0.1(1) 1. 0
O1 O2- 4 e 0.876(1) 0.153(1) 0.441(1) 0.10(4) 1. 0
O2 O2- 4 e 0.191(2) 0.287(1) 0.620(1) 0.10(4) 1. 0
O3 O2- 4 e 0.014(1) 0.416(1) 0.364(1) 0.10(4) 1. 0
O4 O2- 4 e 0.185(1) 0.133(1) 0.397(1) 0.10(4) 1. 0
O5 O2- 4 e 0.530(1) 0.087(1) 0.352(1) 0.10(4) 1. 0
O6 O2- 4 e 0.694(1) 0.205(1) 0.619(1) 0.10(4) 1. 0
O7 O2- 4 e 0.635(1) 0.394(1) 0.396(1) 0.10(4) 1. 0
#End of TTdata_69305-ICSD