
#(C) 2019 by FIZ Karlsruhe - Leibniz Institute for Information Infrastructure.  All rights reserved.
data_69349-ICSD
_database_code_ICSD 69349
_audit_creation_date 1992-08-20
_audit_update_record 2006-04-01
_chemical_name_systematic 'Sodium trifluorozincate - beta'
_chemical_formula_structural 'Na (Zn F3)'
_chemical_formula_sum 'F3 Na1 Zn1'
_chemical_name_structure_type Perovskite-GdFeO3
_exptl_crystal_density_diffrn 4.1
_publ_section_title
'On the structure and electrical conductivity of the fluoroperovskite Na Zn F3'
loop_
_citation_id
_citation_journal_full
_citation_year
_citation_journal_volume
_citation_page_first
_citation_page_last
_citation_journal_id_ASTM
primary 'Solid State Ionics' 1990 39 273 276 SSIOD3
loop_
_publ_author_name
'Wallin, T.'
'Zeising, J.'
_cell_length_a 5.5928(17)
_cell_length_b 7.7747(19)
_cell_length_c 5.4186(14)
_cell_angle_alpha 90.
_cell_angle_beta 90.
_cell_angle_gamma 90.
_cell_volume 235.61
_cell_formula_units_Z 4
_symmetry_space_group_name_H-M 'P n m a'
_symmetry_Int_Tables_number 62
_refine_ls_R_factor_all 0.047
loop_
_symmetry_equiv_pos_site_id
_symmetry_equiv_pos_as_xyz
1 'x+1/2, y, -z+1/2'
2 'x, -y+1/2, z'
3 '-x+1/2, y+1/2, z+1/2'
4 '-x, -y, -z'
5 '-x+1/2, -y, z+1/2'
6 '-x, y+1/2, -z'
7 'x+1/2, -y+1/2, -z+1/2'
8 'x, y, z'
loop_
_atom_type_symbol
_atom_type_oxidation_number
Zn2+ 2
Na1+ 1
F1- -1
loop_
_atom_site_label
_atom_site_type_symbol
_atom_site_symmetry_multiplicity
_atom_site_Wyckoff_symbol
_atom_site_fract_x
_atom_site_fract_y
_atom_site_fract_z
_atom_site_B_iso_or_equiv
_atom_site_occupancy
_atom_site_attached_hydrogens
Zn1 Zn2+ 4 a 0 0 0 . 1. 0
Na1 Na1+ 4 c 0.05460(34) 0.25 0.48697(26) . 1. 0
F1 F1- 4 c 0.96401(40) 0.25 0.89867(44) . 1. 0
F2 F1- 8 d 0.30045(29) 0.05301(21) 0.19697(27) . 1. 0
loop_
_atom_site_aniso_label
_atom_site_aniso_type_symbol
_atom_site_aniso_U_11
_atom_site_aniso_U_22
_atom_site_aniso_U_33
_atom_site_aniso_U_12
_atom_site_aniso_U_13
_atom_site_aniso_U_23
Zn1 Zn2+ 0.0046(2) 0.0052(2) 0.0067(1) 0.0003(1) -0.0002(2) -0.0002(1)
Na1 Na1+ 0.0147(7) 0.0197(8) 0.0152(8) 0 -0.0032(7) 0
F1 F1- 0.0149(11) 0.0082(9) 0.0123(10) 0 0.0009(9) 0
F2 F1- 0.0082(7) 0.0171(6) 0.0129(7) -0.0039(7) -0.0056(6) 0.0043(6)
#End of TTdata_69349-ICSD