
#(C) 2019 by FIZ Karlsruhe - Leibniz Institute for Information Infrastructure.  All rights reserved.
data_69409-ICSD
_database_code_ICSD 69409
_audit_creation_date 1992-08-20
_audit_update_record 2007-08-01
_chemical_name_systematic 'Disodium tecto-dialumotrisilicate dihydrate'
_chemical_formula_structural 'Na2 (Al2 Si3 O10) (H2 O)2'
_chemical_formula_sum 'H4 Al2 Na2 O12 Si3'
_chemical_name_structure_type Natrolite-frame
_chemical_name_mineral Natrolite
_exptl_crystal_density_diffrn 2.25
_publ_section_title

;
Disorder in natrolites: structure determinations of three disordered
natrolites and one lithium-exchanged disordered natrolite
;
loop_
_citation_id
_citation_journal_full
_citation_year
_citation_journal_volume
_citation_page_first
_citation_page_last
_citation_journal_id_ASTM
primary 'European Journal of Mineralogy' 1990 2 799 807 EJMIER
loop_
_publ_author_name
'Krogh Andersen, E.'
'Krogh Andersen, I.G.'
'Ploug-Sorensen, G.'
_cell_length_a 18.3050(30)
_cell_length_b 18.6320(30)
_cell_length_c 6.589(2)
_cell_angle_alpha 90.
_cell_angle_beta 90.
_cell_angle_gamma 90.
_cell_volume 2247.24
_cell_formula_units_Z 8
_symmetry_space_group_name_H-M 'F d d 2'
_symmetry_Int_Tables_number 43
_refine_ls_R_factor_all 0.02
loop_
_symmetry_equiv_pos_site_id
_symmetry_equiv_pos_as_xyz
1 'x+1/4, -y+1/4, z+1/4'
2 '-x+1/4, y+1/4, z+1/4'
3 '-x, -y, z'
4 'x, y, z'
5 'x+1/4, -y+3/4, z+3/4'
6 '-x+1/4, y+3/4, z+3/4'
7 '-x, -y+1/2, z+1/2'
8 'x, y+1/2, z+1/2'
9 'x+3/4, -y+1/4, z+3/4'
10 '-x+3/4, y+1/4, z+3/4'
11 '-x+1/2, -y, z+1/2'
12 'x+1/2, y, z+1/2'
13 'x+3/4, -y+3/4, z+1/4'
14 '-x+3/4, y+3/4, z+1/4'
15 '-x+1/2, -y+1/2, z'
16 'x+1/2, y+1/2, z'
loop_
_atom_type_symbol
_atom_type_oxidation_number
Na1+ 1
Si4+ 4
Al3+ 3
Si4+ 4
Al3+ 3
Si4+ 4
Al3+ 3
O2- -2
H1+ 1
loop_
_atom_site_label
_atom_site_type_symbol
_atom_site_symmetry_multiplicity
_atom_site_Wyckoff_symbol
_atom_site_fract_x
_atom_site_fract_y
_atom_site_fract_z
_atom_site_B_iso_or_equiv
_atom_site_occupancy
_atom_site_attached_hydrogens
Na1 Na1+ 16 b 0.22082(14) 0.03054(14) 0.61746(66) . 1. 0
Si1 Si4+ 8 a 0 0 0 0.0075(4) 0.92 0
Al1 Al3+ 8 a 0 0 0 0.0075(4) 0.08 0
Si2 Si4+ 16 b 0.15339(8) 0.21138(8) 0.62316(47) . 0.92 0
Al2 Al3+ 16 b 0.15339(8) 0.21138(8) 0.62316(47) . 0.08 0
Si3 Si4+ 16 b 0.03740(9) 0.09378(9) 0.61532(49) . 0.12 0
Al3 Al3+ 16 b 0.03740(9) 0.09378(9) 0.61532(49) . 0.88 0
O1 O2- 16 b 0.02266(24) 0.06857(23) 0.86591(95) . 1. 0
O2 O2- 16 b 0.07002(21) 0.18177(22) 0.60982(89) . 1. 0
O3 O2- 16 b 0.09821(24) 0.03506(23) 0.50069(92) . 1. 0
O4 O2- 16 b 0.20680(23) 0.15280(24) 0.72596(87) . 1. 0
O5 O2- 16 b 0.18047(24) 0.22735(26) 0.38976(93) . 1. 0
O6 O2- 16 b 0.05638(30) 0.18962(30) 0.1115(11) . 1. 0
H1 H1+ 16 b 0.0535 0.1498 0.0617 0.0253 1. 0
H2 H1+ 16 b 0.0919 0.1896 0.1756 0.0253 1. 0
loop_
_atom_site_aniso_label
_atom_site_aniso_type_symbol
_atom_site_aniso_U_11
_atom_site_aniso_U_22
_atom_site_aniso_U_33
_atom_site_aniso_U_12
_atom_site_aniso_U_13
_atom_site_aniso_U_23
Na1 Na1+ 0.0172(12) 0.0169(12) 0.0216(14) -.0016(9) -.0031(13) -.0014(14)
Si2 Si4+ 0.0062(6) 0.007(6) 0.0076(7) -.0004(5) -.0003(7) -.0009(7)
Al2 Al3+ 0.0062(6) 0.007(6) 0.0076(7) -.0004(5) -.0003(7) -.0009(7)
Si3 Si4+ 0.0073(7) 0.0057(7) 0.0073(7) -.0007(5) 0.0001(7) -.0003(8)
Al3 Al3+ 0.0073(7) 0.0057(7) 0.0073(7) -.0007(5) 0.0001(7) -.0003(8)
O1 O2- 0.0222(21) 0.0121(18) 0.0121(20) -.0018(16) 0.0011(22) 0.0017(22)
O2 O2- 0.0073(17) 0.0095(17) 0.0124(19) -.0016(14) -.0007(20) -.0006(19)
O3 O2- 0.0123(20) 0.0119(20) 0.0177(22) 0.0034(16) 0.0001(19) -.0058(20)
O4 O2- 0.011(2) 0.0118(20) 0.0183(23) 0.0018(16) -.0049(20) -.0002(18)
O5 O2- 0.0132(19) 0.0230(21) 0.0129(22) -.0027(17) 0.0021(20) 0.0028(22)
O6 O2- 0.0270(24) 0.0245(24) 0.0220(25) 0.0011(19) -.0020(27) -.0021(27)
#End of TTdata_69409-ICSD