
#(C) 2019 by FIZ Karlsruhe - Leibniz Institute for Information Infrastructure.  All rights reserved.
data_69422-ICSD
_database_code_ICSD 69422
_audit_creation_date 1992-08-20
_chemical_name_systematic 'Tetrasodium barium tricopper fluoride'
_chemical_formula_structural 'Na4 Ba Cu3 F12'
_chemical_formula_sum 'Ba1 Cu3 F12 Na4'
_exptl_crystal_density_diffrn 4.1
_publ_section_title

;
Complex copper II fluorides: XII. Crystal structure and ferromagnetic
properties of Na4BaCu3F12
;
loop_
_citation_id
_citation_journal_full
_citation_year
_citation_journal_volume
_citation_page_first
_citation_page_last
_citation_journal_id_ASTM
primary 'European Journal of Solid State and Inorganic Chemistry' 1990 27 771
782 EJSCE5
loop_
_publ_author_name
'de Kozak, A.'
'Samouel, M.'
'Renaudin, J.'
'Ferey, G.'
_cell_length_a 16.135(2)
_cell_length_b 16.135(2)
_cell_length_c 16.135(2)
_cell_angle_alpha 90.
_cell_angle_beta 90.
_cell_angle_gamma 90.
_cell_volume 4200.56
_cell_formula_units_Z 16
_symmetry_space_group_name_H-M 'I a -3'
_symmetry_Int_Tables_number 206
_refine_ls_R_factor_all 0.058
loop_
_symmetry_equiv_pos_site_id
_symmetry_equiv_pos_as_xyz
1 '-z, x, y+1/2'
2 'z, x+1/2, -y'
3 'z+1/2, -x, y'
4 '-z, -x, -y'
5 'y+1/2, -z, x'
6 '-y, z, x+1/2'
7 'y, z+1/2, -x'
8 '-y, -z, -x'
9 'x, y+1/2, -z'
10 'x+1/2, -y, z'
11 '-x, y, z+1/2'
12 '-x, -y, -z'
13 'z, -x, -y+1/2'
14 '-z, -x+1/2, y'
15 '-z+1/2, x, -y'
16 'z, x, y'
17 '-y+1/2, z, -x'
18 'y, -z, -x+1/2'
19 '-y, -z+1/2, x'
20 'y, z, x'
21 '-x, -y+1/2, z'
22 '-x+1/2, y, -z'
23 'x, -y, -z+1/2'
24 'x, y, z'
25 '-z+1/2, x+1/2, y'
26 'z+1/2, x, -y+1/2'
27 'z, -x+1/2, y+1/2'
28 '-z+1/2, -x+1/2, -y+1/2'
29 'y, -z+1/2, x+1/2'
30 '-y+1/2, z+1/2, x'
31 'y+1/2, z, -x+1/2'
32 '-y+1/2, -z+1/2, -x+1/2'
33 'x+1/2, y, -z+1/2'
34 'x, -y+1/2, z+1/2'
35 '-x+1/2, y+1/2, z'
36 '-x+1/2, -y+1/2, -z+1/2'
37 'z+1/2, -x+1/2, -y'
38 '-z+1/2, -x, y+1/2'
39 '-z, x+1/2, -y+1/2'
40 'z+1/2, x+1/2, y+1/2'
41 '-y, z+1/2, -x+1/2'
42 'y+1/2, -z+1/2, -x'
43 '-y+1/2, -z, x+1/2'
44 'y+1/2, z+1/2, x+1/2'
45 '-x+1/2, -y, z+1/2'
46 '-x, y+1/2, -z+1/2'
47 'x+1/2, -y+1/2, -z'
48 'x+1/2, y+1/2, z+1/2'
loop_
_atom_type_symbol
_atom_type_oxidation_number
Ba2+ 2
Cu2+ 2
Na1+ 1
F1- -1
loop_
_atom_site_label
_atom_site_type_symbol
_atom_site_symmetry_multiplicity
_atom_site_Wyckoff_symbol
_atom_site_fract_x
_atom_site_fract_y
_atom_site_fract_z
_atom_site_B_iso_or_equiv
_atom_site_occupancy
_atom_site_attached_hydrogens
Ba1 Ba2+ 8 a 0 0 0 . 1. 0
Ba2 Ba2+ 8 b 0.25 0.25 0.25 . 1. 0
Cu1 Cu2+ 48 e 0.3787(8) 0.1276(5) 0.1204(7) 0.29(8) 1. 0
Na1 Na1+ 16 c 0.1315(28) 0.1315(28) 0.1315(28) 7.50(16) 1. 0
Na2 Na1+ 24 d 0.2614(16) 0 0.25 2.7(4) 1. 0
Na3 Na1+ 24 d 0 0.25 0.0332(10) 0.8(2) 1. 0
F1 F1- 48 e 0.0919(22) 0.3540(22) 0.9831(22) 2.0(8) 1. 0
F2 F1- 48 e 0.1075(16) 0.2557(22) 0.1508(14) 0.9(4) 1. 0
F3 F1- 48 e 0.0132(22) 0.4099(20) 0.142(2) 1.9(8) 1. 0
F4 F1- 48 e 0.2406(27) 0.3491(17) 0.0983(21) 1.5(7) 1. 0
loop_
_atom_site_aniso_label
_atom_site_aniso_type_symbol
_atom_site_aniso_U_11
_atom_site_aniso_U_22
_atom_site_aniso_U_33
_atom_site_aniso_U_12
_atom_site_aniso_U_13
_atom_site_aniso_U_23
Ba1 Ba2+ 0.0106(5) 0.0106(5) 0.0106(5) 0.0084(23) 0.0084(23) 0.0084(23)
Ba2 Ba2+ 0.0120(5) 0.0120(5) 0.0120(5) 0.0062(19) 0.0062(19) 0.0062(19)
#End of TTdata_69422-ICSD