
#(C) 2019 by FIZ Karlsruhe - Leibniz Institute for Information Infrastructure.  All rights reserved.
data_69433-ICSD
_database_code_ICSD 69433
_audit_creation_date 1992-08-20
_audit_update_record 2011-02-01
_chemical_name_systematic 'Sodium strontium hexafluoroaluminate'
_chemical_formula_structural 'Na Sr (Al F6)'
_chemical_formula_sum 'Al1 F6 Na1 Sr1'
_chemical_name_structure_type NaSrAlF6
_exptl_crystal_density_diffrn 3.65
_publ_section_title 'Synthesis and crystal structure of Na Sr Al F6'
loop_
_citation_id
_citation_journal_full
_citation_year
_citation_journal_volume
_citation_page_first
_citation_page_last
_citation_journal_id_ASTM
primary 'European Journal of Solid State and Inorganic Chemistry' 1990 27 905
912 EJSCE5
loop_
_publ_author_name
'Hemon, A.'
'Le Bail, A.'
'Courbion, G.'
_cell_length_a 18.303(1)
_cell_length_b 5.3122(2)
_cell_length_c 9.4200(4)
_cell_angle_alpha 90.
_cell_angle_beta 90.
_cell_angle_gamma 90.
_cell_volume 915.9
_cell_formula_units_Z 8
_symmetry_space_group_name_H-M 'P n a 21'
_symmetry_Int_Tables_number 33
_refine_ls_R_factor_all 0.015
loop_
_symmetry_equiv_pos_site_id
_symmetry_equiv_pos_as_xyz
1 'x+1/2, -y+1/2, z'
2 '-x+1/2, y+1/2, z+1/2'
3 '-x, -y, z+1/2'
4 'x, y, z'
loop_
_atom_type_symbol
_atom_type_oxidation_number
Sr2+ 2
Al3+ 3
Na1+ 1
F1- -1
loop_
_atom_site_label
_atom_site_type_symbol
_atom_site_symmetry_multiplicity
_atom_site_Wyckoff_symbol
_atom_site_fract_x
_atom_site_fract_y
_atom_site_fract_z
_atom_site_B_iso_or_equiv
_atom_site_occupancy
_atom_site_attached_hydrogens
Sr1 Sr2+ 4 a 0.1151 0.7556(1) 0 . 1. 0
Sr2 Sr2+ 4 a 0.3661 0.7565(1) 0.1367(1) . 1. 0
Al1 Al3+ 4 a 0.2456(1) 0.2546(3) 0.2434(4) . 1. 0
Al2 Al3+ 4 a 0.5054(1) 0.7374(3) 0.4010(3) . 1. 0
Na1 Na1+ 4 a 0.0643(2) 0.2600(5) 0.2715(4) . 1. 0
Na2 Na1+ 4 a 0.1865(3) 0.7577(5) 0.3680(6) . 1. 0
F1 F1- 4 a 0.2093(2) 0.0020(9) 0.8367(5) . 1. 0
F2 F1- 4 a 0.1834(2) 0.2073(8) 0.3904(6) . 1. 0
F3 F1- 4 a 0.1920(2) 0.5344(7) 0.8251(5) . 1. 0
F4 F1- 4 a 0.0589(2) 0.0217(9) 0.8122(6) . 1. 0
F5 F1- 4 a 0.4627(2) 0.9917(8) 0.2991(6) . 1. 0
F6 F1- 4 a 0.4404(3) 0.7990(9) 0.5401(7) . 1. 0
F7 F1- 4 a 0.0399(2) 0.0330(7) 0.4919(6) . 1. 0
F8 F1- 4 a 0.1902(3) 0.8025(9) 0.6061(6) . 1. 0
F9 F1- 4 a 0.0680(2) 0.8198(8) 0.2521(7) . 1. 0
F10 F1- 4 a 0.2918(2) 0.4886(8) 0.6514(7) . 1. 0
F11 F1- 4 a 0.4278(2) 0.0510(7) 0.9694(6) . 1. 0
F12 F1- 4 a 0.3178(3) 0.9741(8) 0.6711(7) . 1. 0
loop_
_atom_site_aniso_label
_atom_site_aniso_type_symbol
_atom_site_aniso_U_11
_atom_site_aniso_U_22
_atom_site_aniso_U_33
_atom_site_aniso_U_12
_atom_site_aniso_U_13
_atom_site_aniso_U_23
Sr1 Sr2+ 0.0108(3) 0.0100(3) 0.0085(4) 0.0000(2) -.0011(3) -.0001(3)
Sr2 Sr2+ 0.0107(3) 0.0113(3) 0.0063(3) -.0005(2) 0.0003(3) -.0006(3)
Al1 Al3+ 0.0089(8) 0.0067(9) 0.0095(16) -.0010(5) 0.002(1) -.0003(6)
Al2 Al3+ 0.0075(7) 0.0069(6) 0.008(15) -.0001(5) -.0016(10) 0.0014(7)
Na1 Na1+ 0.0183(14) 0.0140(14) 0.0025(11) 0.0037(9) 0.0004(12) 0.0011(9)
Na2 Na1+ 0.0245(18) 0.0134(15) 0.0327(26) 0.0028(10) 0.0048(22) 0.0006(12)
F1 F1- 0.0150(17) 0.0099(16) 0.0149(20) 0.0055(14) 0.0049(15) -.0016(15)
F2 F1- 0.0129(16) 0.0224(18) 0.0122(19) -.0026(15) 0.0100(15) -.0025(17)
F3 F1- 0.0154(16) 0.0081(15) 0.0138(17) -.0032(13) 0.0026(15) 0.0000(15)
F4 F1- 0.0157(17) 0.0151(19) 0.0263(25) 0.0062(16) 0.0096(19) 0.0051(20)
F5 F1- 0.0149(17) 0.0119(16) 0.0217(23) -.0040(15) 0.0028(17) 0.0078(17)
F6 F1- 0.0301(27) 0.0351(24) 0.0111(24) 0.0204(24) 0.0075(19) -.0004(22)
F7 F1- 0.0258(20) 0.0110(16) 0.0188(21) -.0050(15) -.0044(19) -.0017(17)
F8 F1- 0.0205(22) 0.0319(23) 0.0125(23) 0.0042(22) -.0071(18) -.0072(23)
F9 F1- 0.0141(17) 0.0169(17) 0.0232(24) -.0018(16) 0.0010(17) 0.0066(20)
F10 F1- 0.0262(22) 0.0173(18) 0.0156(22) 0.0081(17) 0.0062(17) -.0013(18)
F11 F1- 0.0189(18) 0.0156(18) 0.0199(22) -.0032(15) 0.0067(16) 0.0026(17)
F12 F1- 0.0284(22) 0.0146(18) 0.0293(25) -.0052(17) 0.0166(21) 0.0047(19)
#End of TTdata_69433-ICSD