
#(C) 2019 by FIZ Karlsruhe - Leibniz Institute for Information Infrastructure.  All rights reserved.
data_69489-ICSD
_database_code_ICSD 69489
_audit_creation_date 1992-08-20
_chemical_name_systematic 'Trisodium trioxoselenidoarsenate dodecahydrate'
_chemical_formula_structural 'Na3 (As O3 Se) (H2 O)12'
_chemical_formula_sum 'H24 As1 Na3 O15 Se1'
_chemical_name_structure_type Na3AsO3S(H2O)12
_exptl_crystal_density_diffrn 1.92
_publ_section_title

;
Selenoarsenate aus waessriger Loesung. Die Kristallstruktur von Na3AsO3Se .
12H2O und Na3AsSe4 . 9H2O
;
loop_
_citation_id
_citation_journal_full
_citation_year
_citation_journal_volume
_citation_page_first
_citation_page_last
_citation_journal_id_ASTM
primary 'Zeitschrift fuer Anorganische und Allgemeine Chemie (1950) (DE)' 1990
581 141 152 ZAACAB
loop_
_publ_author_name
'Krebs, B.'
'Huerter, H.U.'
'Enax, J.'
'Froehlich, R.'
_cell_length_a 9.220(3)
_cell_length_b 13.018(3)
_cell_length_c 14.048(4)
_cell_angle_alpha 90.
_cell_angle_beta 90.
_cell_angle_gamma 90.
_cell_volume 1686.12
_cell_formula_units_Z 4
_symmetry_space_group_name_H-M 'P 21 21 21'
_symmetry_Int_Tables_number 19
_refine_ls_R_factor_all 0.041
loop_
_symmetry_equiv_pos_site_id
_symmetry_equiv_pos_as_xyz
1 '-x, y+1/2, -z+1/2'
2 'x+1/2, -y+1/2, -z'
3 '-x+1/2, -y, z+1/2'
4 'x, y, z'
loop_
_atom_type_symbol
_atom_type_oxidation_number
As5+ 5
Se2- -2
Na1+ 1
O2- -2
H1+ 1
loop_
_atom_site_label
_atom_site_type_symbol
_atom_site_symmetry_multiplicity
_atom_site_Wyckoff_symbol
_atom_site_fract_x
_atom_site_fract_y
_atom_site_fract_z
_atom_site_B_iso_or_equiv
_atom_site_occupancy
_atom_site_attached_hydrogens
As1 As5+ 4 a 0.25168(9) 0.04117(5) 0.22749(5) . 1. 0
Se1 Se2- 4 a 0.23744(9) 0.20969(5) 0.27161(5) . 1. 0
Na1 Na1+ 4 a 0.2482(6) 0.5081(2) 0.5204(2) . 1. 0
Na2 Na1+ 4 a 0.2573(5) 0.7160(2) 0.3998(2) . 1. 0
Na3 Na1+ 4 a 0.2596(5) 0.7200(2) 0.1097(2) . 1. 0
O1 O2- 4 a 0.0878(5) -.0163(3) 0.2386(3) . 1. 0
O2 O2- 4 a 0.3070(5) 0.0321(4) 0.1124(3) . 1. 0
O3 O2- 4 a 0.3739(5) -.0214(3) 0.2968(3) . 1. 0
O4 O2- 4 a 0.0947(6) 0.5700(4) 0.3956(4) . 1. 0
O5 O2- 4 a 0.4447(6) 0.6133(4) 0.4666(3) . 1. 0
O6 O2- 4 a 0.1523(6) 0.5620(4) 0.1611(3) . 1. 0
O7 O2- 4 a 0.4481(6) 0.6037(4) 0.0692(3) . 1. 0
O8 O2- 4 a 0.3827(5) 0.7718(3) 0.2541(3) . 1. 0
O9 O2- 4 a 0.3527(6) 0.8755(4) 0.4681(3) . 1. 0
O10 O2- 4 a 0.0494(6) 0.8240(4) 0.1123(3) . 1. 0
O11 O2- 4 a 0.3607(6) 0.8589(4) 0.0184(4) . 1. 0
O12 O2- 4 a 0.3421(6) 0.3224(4) 0.0636(3) . 1. 0
O13 O2- 4 a 0.3485(6) 0.3509(4) 0.4578(3) . 1. 0
O14 O2- 4 a 0.0518(6) 0.8156(4) 0.3574(3) . 1. 0
O15 O2- 4 a 0.3577(6) 0.4844(4) 0.2778(4) . 1. 0
H1 H1+ 4 a 0.016 0.58 0.442 4.4(2) 1. 0
H2 H1+ 4 a 0.062 0.541 0.338 4.4(2) 1. 0
H3 H1+ 4 a -.006 0.854 0.482 3.1(2) 1. 0
H4 H1+ 4 a 0.01 0.923 0.573 3.1(2) 1. 0
H5 H1+ 4 a 0.198 0.535 0.208 3.5(2) 1. 0
H6 H1+ 4 a 0.058 0.552 0.188 3.5(2) 1. 0
H7 H1+ 4 a 0.51 0.612 0.024 2.8(2) 1. 0
H8 H1+ 4 a 0.517 0.567 0.117 2.8(2) 1. 0
H9 H1+ 4 a 0.481 0.742 0.248 2.6(1) 1. 0
H10 H1+ 4 a 0.404 0.836 0.255 2.6(1) 1. 0
H11 H1+ 4 a 0.281 0.886 0.518 2.5(2) 1. 0
H12 H1+ 4 a 0.326 0.92 0.416 2.5(2) 1. 0
H13 H1+ 4 a 0.06 0.888 0.153 3.1(2) 1. 0
H14 H1+ 4 a -.048 0.804 0.132 3.1(2) 1. 0
H15 H1+ 4 a 0.333 0.924 0.042 2.9(2) 1. 0
H16 H1+ 4 a 0.342 0.86 -.044 2.9(2) 1. 0
H17 H1+ 4 a 0.452 0.321 0.062 3.4(2) 1. 0
H18 H1+ 4 a 0.302 0.3 0.123 3.4(2) 1. 0
H19 H1+ 4 a 0.455 0.352 0.453 3.0(2) 1. 0
H20 H1+ 4 a 0.326 0.32 0.402 3.0(2) 1. 0
H21 H1+ 4 a -.01 0.77 0.339 2.8(2) 1. 0
H22 H1+ 4 a 0.058 0.862 0.315 2.8(2) 1. 0
H23 H1+ 4 a 0.365 0.438 0.32 6.1(2) 1. 0
H24 H1+ 4 a 0.449 0.49 0.264 6.1(2) 1. 0
loop_
_atom_site_aniso_label
_atom_site_aniso_type_symbol
_atom_site_aniso_B_11
_atom_site_aniso_B_22
_atom_site_aniso_B_33
_atom_site_aniso_B_12
_atom_site_aniso_B_13
_atom_site_aniso_B_23
As1 As5+ 1.26(3) 1.30(3) 0.90(3) -.03(3) 0.09(4) 0.08(3)
Se1 Se2- 2.44(3) 1.63(2) 2.07(2) 0.00(3) -.04(4) -.48(2)
Na1 Na1+ 2.99(11) 2.09(10) 2.99(11) -.22(14) -.65(16) 0.57(9)
Na2 Na1+ 2.84(14) 2.56(10) 2.67(13) -.55(18) -.02(16) -.81(10)
Na3 Na1+ 2.63(13) 2.06(10) 2.12(11) 0.00(9) -.20(15) -.43(9)
O1 O2- 1.5(2) 1.7(2) 1.8(2) -.2(2) -.2(2) -.1(2)
O2 O2- 2.5(2) 2.5(2) 0.8(2) -.2(2) 0.6(2) -.3(2)
O3 O2- 1.2(2) 1.9(2) 1.4(2) 0.5(2) 0.0(2) 0.4(2)
O4 O2- 4.0(3) 3.2(3) 4.3(3) -1. -2.0(3) 0.6(3)
O5 O2- 2.2(2) 3.2(2) 2.4(2) 0.8(2) -.2(2) -.7(2)
O6 O2- 2.2(2) 4.1(3) 2.5(3) -.1(2) 0.7(2) 0.5(2)
O7 O2- 1.8(2) 2.9(3) 2.3(2) 0.1(2) 0.2(2) 0.1(2)
O8 O2- 2.5(2) 2.0(2) 2.2(3) 0.2(2) -.1(2) 0.2(2)
O9 O2- 2.2(2) 2.6(2) 1.4(2) 0.4(2) -.4(2) 0.3(2)
O10 O2- 3.7(3) 2.5(2) 1.7(2) -.3(2) 0.0(2) -.1(2)
O11 O2- 3.0(3) 2.4(2) 1.9(2) 0.1(2) 0.4(2) -.4(2)
O12 O2- 2.6(2) 3.5(3) 2.3(2) 0.0(2) -.1(2) 0.4(2)
O13 O2- 2.4(2) 3.3(3) 1.9(2) -.1(2) -.1(2) -.3(2)
O14 O2- 2.5(2) 2.3(2) 2.0(2) -.4(2) -.6(2) 0.5(2)
O15 O2- 2.3(2) 6.9(3) 6.0(3) 0.3(3) -.1(3) 2.6(3)
#End of TTdata_69489-ICSD