
#(C) 2019 by FIZ Karlsruhe - Leibniz Institute for Information Infrastructure.  All rights reserved.
data_69545-ICSD
_database_code_ICSD 69545
_audit_creation_date 1992-08-20
_audit_update_record 2012-08-01
_chemical_name_systematic
'Tetrasodium dirubidium cyclo-hexaphosphate hexahydrate'
_chemical_formula_structural 'Na4 Rb2 (P6 O18) (H2 O)6'
_chemical_formula_sum 'H12 Na4 O24 P6 Rb2'
_exptl_crystal_density_diffrn 2.45
_publ_section_title

;
Crystal chemistry of cyclo-hexaphosphates. XV.Structures of sodium ammonium
cyclo-hexaphosphate dihydrate and sodium rubidium cyclo-hexaphosphate
hexahydrate
;
loop_
_citation_id
_citation_journal_full
_citation_year
_citation_journal_volume
_citation_page_first
_citation_page_last
_citation_journal_id_ASTM
primary 'Acta Crystallographica, Section C: Crystal Structure Communications'
1991 47 932 936 ACSCEE
loop_
_publ_author_name
'Averbuch-Pouchot, M.T.'
'Durif, A.'
_cell_length_a 7.532(3)
_cell_length_b 9.752(3)
_cell_length_c 8.730(3)
_cell_angle_alpha 113.92(4)
_cell_angle_beta 102.29(4)
_cell_angle_gamma 85.00(4)
_cell_volume 572.73
_cell_formula_units_Z 1
_symmetry_space_group_name_H-M 'P -1'
_symmetry_Int_Tables_number 2
_refine_ls_R_factor_all 0.04
loop_
_symmetry_equiv_pos_site_id
_symmetry_equiv_pos_as_xyz
1 '-x, -y, -z'
2 'x, y, z'
loop_
_atom_type_symbol
_atom_type_oxidation_number
Rb1+ 1
P5+ 5
Na1+ 1
O2- -2
H1+ 1
loop_
_atom_site_label
_atom_site_type_symbol
_atom_site_symmetry_multiplicity
_atom_site_Wyckoff_symbol
_atom_site_fract_x
_atom_site_fract_y
_atom_site_fract_z
_atom_site_B_iso_or_equiv
_atom_site_occupancy
_atom_site_attached_hydrogens
Rb1 Rb1+ 2 i 0.24345(5) 0.37992(4) 0.84913(4) . 1. 0
P1 P5+ 2 i 0.0750(1) 0.24108(8) 0.13752(9) . 1. 0
P2 P5+ 2 i 0.7412(1) 0.88303(8) 0.61883(9) . 1. 0
P3 P5+ 2 i 0.2429(1) 0.80028(8) 0.12834(9) . 1. 0
Na1 Na1+ 2 i 0.5352(2) 0.2863(2) 0.2214(2) . 1. 0
Na2 Na1+ 2 i 0.1511(2) 0.8597(2) 0.5250(2) . 1. 0
O1 O2- 2 i 0.7600(3) 0.7884(3) 0.9380(3) . 1. 0
O2 O2- 2 i -.0182(4) 0.6013(3) 0.7729(3) . 1. 0
O3 O2- 2 i 0.0860(3) 0.1553(2) 0.2615(3) . 1. 0
O4 O2- 2 i 0.0911(3) 0.8521(3) 0.0036(3) . 1. 0
O5 O2- 2 i 0.3316(3) 0.9614(2) 0.2529(3) . 1. 0
O6 O2- 2 i 0.8168(4) 0.9068(3) 0.4883(3) . 1. 0
O7 O2- 2 i 0.5937(4) 0.7737(3) 0.5698(3) . 1. 0
O8 O2- 2 i 0.1556(4) 0.7386(3) 0.2239(3) . 1. 0
O9 O2- 2 i 0.6150(3) 0.2883(3) 0.9660(3) . 1. 0
O10 O2- 2 i 0.3327(4) 0.9537(3) 0.8047(3) . 1. 0
O11 O2- 2 i 0.5511(4) 0.4669(3) 0.7129(4) . 1. 0
O12 O2- 2 i 0.1936(4) 0.6218(3) 0.5519(3) . 1. 0
H1 H1+ 2 i 0.31(1) 0.017(8) 0.886(9) 3.(2) 1. 0
H2 H1+ 2 i 0.41(1) 0.017(9) 0.81(1) 5.(2) 1. 0
H3 H1+ 2 i 0.490(9) 0.604(7) 0.370(8) 2.(1) 1. 0
H4 H1+ 2 i 0.37(1) 0.609(8) 0.286(9) 3.(2) 1. 0
H5 H1+ 2 i 0.188(9) 0.545(7) 0.453(8) 3.(2) 1. 0
H6 H1+ 2 i 0.14(1) 0.586(8) 0.616(9) 4.(2) 1. 0
loop_
_atom_site_aniso_label
_atom_site_aniso_type_symbol
_atom_site_aniso_beta_11
_atom_site_aniso_beta_22
_atom_site_aniso_beta_33
_atom_site_aniso_beta_12
_atom_site_aniso_beta_13
_atom_site_aniso_beta_23
Rb1 Rb1+ 0.00917(1) 0.00688(1) 0.01053(4) 0.00073(3) 0.00237(4) 0.00442(3)
P1 P5+ 0.0050(1) 0.00313(6) 0.00369(7) 0.0000(1) 0.00110(5) 0.00090(5)
P2 P5+ 0.0064(1) 0.00356(6) 0.00346(7) -.0008(1) 0.00050(5) 0.00105(5)
P3 P5+ 0.00471(9) 0.00315(6) 0.00422(7) 0.0003(1) 0.00115(5) 0.00115(5)
Na1 Na1+ 0.0074(2) 0.0057(1) 0.0081(2) 0.0001(2) 0.0015(2) 0.0027(1)
Na2 Na1+ 0.0141(3) 0.0064(1) 0.0066(2) -.0006(2) 0.0021(2) 0.0028(1)
O1 O2- 0.0068(3) 0.0067(2) 0.0055(3) -.0003(3) 0.0027(3) 0.0017(2)
O2 O2- 0.0090(4) 0.0035(2) 0.0073(3) 0.0005(3) 0.0017(3) 0.0010(2)
O3 O2- 0.0069(3) 0.0049(2) 0.0055(2) 0.0004(2) 0.0015(3) 0.0028(2)
O4 O2- 0.0068(3) 0.0041(2) 0.0059(3) -.0002(2) -.0009(3) 0.0017(2)
O5 O2- 0.0051(3) 0.0039(2) 0.0057(3) -.0005(2) 0.0008(3) 0.0010(2)
O6 O2- 0.0118(4) 0.0060(2) 0.0050(2) -.0001(3) 0.0032(3) 0.0025(2)
O7 O2- 0.0103(4) 0.0053(2) 0.0072(3) -.0035(3) 0.0001(3) 0.0013(2)
O8 O2- 0.0095(4) 0.0061(2) 0.0068(3) -.0015(3) 0.0023(3) 0.0031(2)
O9 O2- 0.0077(4) 0.0061(2) 0.0075(3) 0.0025(3) 0.0035(3) 0.0013(2)
O10 O2- 0.0091(4) 0.0058(2) 0.0086(3) -.0001(3) 0.0039(3) 0.0015(2)
O11 O2- 0.0141(5) 0.0047(3) 0.0082(4) 0.0014(3) 0.0010(4) 0.0003(3)
O12 O2- 0.0112(4) 0.0065(3) 0.0075(3) -.0014(3) 0.0039(3) 0.0005(3)
#End of TTdata_69545-ICSD