
#(C) 2019 by FIZ Karlsruhe - Leibniz Institute for Information Infrastructure.  All rights reserved.
data_69558-ICSD
_database_code_ICSD 69558
_audit_creation_date 1992-08-20
_chemical_name_systematic 'Trisodium hydroxotrioxogermanate pentahydrate'
_chemical_formula_structural 'Na3 ((O H) O3 Ge) (H2 O)5'
_chemical_formula_sum 'H11 Ge1 Na3 O9'
_chemical_name_structure_type Na3HSiO4(H2O)5
_exptl_crystal_density_diffrn 2.29
_cell_measurement_temperature 296.
_publ_section_title
'Structure of trisodium monohydroxogermanate(IV) pentahydrate'
loop_
_citation_id
_citation_journal_full
_citation_year
_citation_journal_volume
_citation_page_first
_citation_page_last
_citation_journal_id_ASTM
primary 'Acta Crystallographica, Section C: Crystal Structure Communications'
1991 47 1145 1148 ACSCEE
loop_
_publ_author_name
'Schmid, R.L.'
'Wiebcke, M.'
'Felsche, J.'
_cell_length_a 11.889(6)
_cell_length_b 11.039(2)
_cell_length_c 13.090(2)
_cell_angle_alpha 90.
_cell_angle_beta 90.
_cell_angle_gamma 90.
_cell_volume 1717.97
_cell_formula_units_Z 8
_symmetry_space_group_name_H-M 'P b c a'
_symmetry_Int_Tables_number 61
_refine_ls_R_factor_all 0.034
loop_
_symmetry_equiv_pos_site_id
_symmetry_equiv_pos_as_xyz
1 'x+1/2, y, -z+1/2'
2 'x, -y+1/2, z+1/2'
3 '-x+1/2, y+1/2, z'
4 '-x, -y, -z'
5 '-x+1/2, -y, z+1/2'
6 '-x, y+1/2, -z+1/2'
7 'x+1/2, -y+1/2, -z'
8 'x, y, z'
loop_
_atom_type_symbol
_atom_type_oxidation_number
Ge4+ 4
Na1+ 1
O2- -2
H1+ 1
loop_
_atom_site_label
_atom_site_type_symbol
_atom_site_symmetry_multiplicity
_atom_site_Wyckoff_symbol
_atom_site_fract_x
_atom_site_fract_y
_atom_site_fract_z
_atom_site_B_iso_or_equiv
_atom_site_occupancy
_atom_site_attached_hydrogens
Ge1 Ge4+ 8 c 0.47802(5) 0.62588(5) 0.62966(4) . 1. 0
Na1 Na1+ 8 c 0.3251(2) 0.6339(2) 0.3699(2) . 1. 0
Na2 Na1+ 8 c 0.1831(2) 0.6080(2) 0.5815(2) . 1. 0
Na3 Na1+ 8 c 0.3361(2) 0.3756(2) 0.6776(2) . 1. 0
O1 O2- 8 c 0.3713(3) 0.5429(3) 0.5666(3) . 1. 0
O2 O2- 8 c 0.4665(3) 0.7732(3) 0.5890(3) . 1. 0
O3 O2- 8 c 0.6085(3) 0.5688(3) 0.6045(3) . 1. 0
O4 O2- 8 c 0.4436(3) 0.6007(3) 0.7556(3) . 1. 0
O5 O2- 8 c 0.3619(3) 0.5589(3) 0.1910(3) . 1. 0
O6 O2- 8 c 0.2365(3) 0.6983(3) 0.7574(3) . 1. 0
O7 O2- 8 c 0.2521(4) 0.7178(3) 0.0071(3) . 1. 0
O8 O2- 8 c 0.5140(3) 0.7410(4) 0.3851(3) . 1. 0
O9 O2- 8 c 0.3635(3) 0.4295(4) 0.8920(3) . 1. 0
H1 H1+ 8 c 0.385 0.5 0.514 4. 1. 0
H2 H1+ 8 c 0.418 0.516 0.221 4. 1. 0
H3 H1+ 8 c 0.4 0.616 0.166 4. 1. 0
H4 H1+ 8 c 0.201 0.65 0.805 4. 1. 0
H5 H1+ 8 c 0.301 0.668 0.764 4. 1. 0
H6 H1+ 8 c 0.318 0.699 0.027 4. 1. 0
H7 H1+ 8 c 0.217 0.668 -.029 4. 1. 0
H8 H1+ 8 c 0.5 0.768 0.459 4. 1. 0
H9 H1+ 8 c 0.484 0.799 0.346 4. 1. 0
H10 H1+ 8 c 0.416 0.385 0.902 4. 1. 0
H11 H1+ 8 c 0.383 0.5 0.859 4. 1. 0
loop_
_atom_site_aniso_label
_atom_site_aniso_type_symbol
_atom_site_aniso_B_11
_atom_site_aniso_B_22
_atom_site_aniso_B_33
_atom_site_aniso_B_12
_atom_site_aniso_B_13
_atom_site_aniso_B_23
Ge1 Ge4+ 1.09(2) 1.11(2) 1.16(2) 0.00(2) -.06(2) 0.02(2)
Na1 Na1+ 1.31(9) 1.58(9) 1.62(9) 0.01(7) -.21(7) 0.07(7)
Na2 Na1+ 1.28(8) 1.54(8) 1.96(9) 0.07(7) 0.14(7) 0.41(8)
Na3 Na1+ 1.60(8) 1.55(9) 2.06(9) 0.25(7) 0.50(8) 0.41(8)
O1 O2- 1.0(1) 1.0(1) 1.8(1) 0.0(1) 0.1(1) -.2(1)
O2 O2- 1.2(1) 0.8(1) 1.3(1) 0.0(1) 0.0(1) 0.0(1)
O3 O2- 0.6(1) 1.2(1) 1.6(1) 0.2(1) -.2(1) -.3(1)
O4 O2- 2.0(1) 2.3(2) 0.6(1) -.4(1) 0.2(1) 0.4(1)
O5 O2- 1.9(2) 1.3(1) 1.6(1) -.2(1) -.2(1) 0.3(1)
O6 O2- 1.3(1) 1.8(2) 1.4(1) 0.1(1) 0.3(1) 0.3(1)
O7 O2- 1.6(1) 1.9(2) 2.2(2) 0.2(1) -.6(1) -.5(2)
O8 O2- 1.9(2) 2.7(2) 1.1(2) 0.6(1) 0.4(1) 0.4(1)
O9 O2- 1.2(2) 1.6(2) 4.3(2) 0.1(1) 0.5(2) 0.9(2)
#End of TTdata_69558-ICSD