
#(C) 2019 by FIZ Karlsruhe - Leibniz Institute for Information Infrastructure.  All rights reserved.
data_69564-ICSD
_database_code_ICSD 69564
_audit_creation_date 1992-08-20
_audit_update_record 2012-08-01
_chemical_name_systematic 'Sodium potassium digermanate (8.4/3.6/2)'
_chemical_formula_structural 'Na7 (Na1.38 K0.62) K3 (Ge2 O7)2'
_chemical_formula_sum 'Ge4 K3.62 Na8.38 O14'
_exptl_crystal_density_diffrn 3.17
_cell_measurement_temperature 298.
_publ_section_title
'Structure of potassium sodium digermanate Na7(Na1.4K0.6)K3(Ge2O7)2'
loop_
_citation_id
_citation_journal_full
_citation_year
_citation_journal_volume
_citation_page_first
_citation_page_last
_citation_journal_id_ASTM
primary 'Acta Crystallographica, Section C: Crystal Structure Communications'
1991 47 1353 1356 ACSCEE
loop_
_publ_author_name
'Halwax, E.'
'Voellenkle, H.'
_cell_length_a 5.939(1)
_cell_length_b 15.062(3)
_cell_length_c 19.904(3)
_cell_angle_alpha 90.
_cell_angle_beta 93.31(1)
_cell_angle_gamma 90.
_cell_volume 1777.51
_cell_formula_units_Z 4
_symmetry_space_group_name_H-M 'P 1 21/c 1'
_symmetry_Int_Tables_number 14
_refine_ls_R_factor_all 0.033
loop_
_symmetry_equiv_pos_site_id
_symmetry_equiv_pos_as_xyz
1 'x, -y+1/2, z+1/2'
2 '-x, -y, -z'
3 '-x, y+1/2, -z+1/2'
4 'x, y, z'
loop_
_atom_type_symbol
_atom_type_oxidation_number
Na1+ 1
K1+ 1
Na1+ 1
K1+ 1
Na1+ 1
K1+ 1
Ge4+ 4
O2- -2
loop_
_atom_site_label
_atom_site_type_symbol
_atom_site_symmetry_multiplicity
_atom_site_Wyckoff_symbol
_atom_site_fract_x
_atom_site_fract_y
_atom_site_fract_z
_atom_site_B_iso_or_equiv
_atom_site_occupancy
_atom_site_attached_hydrogens
Na1 Na1+ 4 e 0.3586(3) 0.3995(1) 0.1904(1) . 1. 0
Na2 Na1+ 4 e 0.1113(3) 0.2594(1) 0.0495(1) . 0.64(2) 0
K1 K1+ 4 e 0.1113(3) 0.2594(1) 0.0495(1) . 0.36(2) 0
Na3 Na1+ 4 e 0.3794(3) 0.0873(1) 0.0263(1) . 1. 0
Na4 Na1+ 4 e 0.0132(3) 0.1442(1) 0.4008(1) . 1. 0
Na5 Na1+ 4 e 0.6151(3) 0.2222(1) 0.1379(1) . 1. 0
Na6 Na1+ 4 e 0.7802(3) 0.3142(1) 0.2666(1) . 1. 0
Na7 Na1+ 4 e 0.5546(3) 0.5024(1) 0.3254(1) . 1. 0
Na8 Na1+ 4 e 0.2233(3) 0.4680(1) 0.0384(1) . 0.74(2) 0
K2 K1+ 4 e 0.2233(3) 0.4680(1) 0.0384(1) . 0.26(2) 0
Na9 Na1+ 4 e 0.8200(4) 0.4058(2) 0.1239(1) . 1. 0
K3 K1+ 4 e 0.2819(2) 0.3192(1) 0.3643(1) . 1. 0
K4 K1+ 4 e 0.5451(2) 0.1229(1) 0.3232(1) . 1. 0
K5 K1+ 4 e 0.9349(2) 0.0333(1) 0.0880(1) . 1. 0
Ge1 Ge4+ 4 e 0.01547(8) 0.02035(3) 0.27021(3) . 1. 0
Ge2 Ge4+ 4 e 0.18671(8) 0.20251(3) 0.20108(3) . 1. 0
Ge3 Ge4+ 4 e 0.58259(9) 0.17034(4) 0.50574(3) . 1. 0
Ge4 Ge4+ 4 e 0.78048(9) 0.34725(4) 0.44414(3) . 1. 0
O1 O2- 4 e 0.8186(6) -.0122(3) 0.2077(2) . 1. 0
O2 O2- 4 e 0.2733(5) -.0353(2) 0.2698(2) . 1. 0
O3 O2- 4 e -.0968(6) 0.0090(2) 0.3495(2) . 1. 0
O4 O2- 4 e 0.0721(6) 0.1384(2) 0.2680(2) . 1. 0
O5 O2- 4 e -.0290(6) 0.2716(2) 0.1698(2) . 1. 0
O6 O2- 4 e 0.4139(6) 0.2604(2) 0.2388(2) . 1. 0
O7 O2- 4 e 0.2856(6) 0.1342(2) 0.1382(2) . 1. 0
O8 O2- 4 e 0.8413(6) 0.1161(3) 0.5034(2) . 1. 0
O9 O2- 4 e 0.4695(6) 0.1489(2) 0.5836(2) . 1. 0
O10 O2- 4 e 0.3803(7) 0.1470(3) 0.4427(2) . 1. 0
O11 O2- 4 e 0.6430(6) 0.2893(2) 0.5112(2) . 1. 0
O12 O2- 4 e 0.7965(6) 0.2771(2) 0.3762(2) . 1. 0
O13 O2- 4 e 0.0461(6) 0.3756(3) 0.4775(2) . 1. 0
O14 O2- 4 e 0.6068(6) 0.4400(2) 0.4318(2) . 1. 0
loop_
_atom_site_aniso_label
_atom_site_aniso_type_symbol
_atom_site_aniso_U_11
_atom_site_aniso_U_22
_atom_site_aniso_U_33
_atom_site_aniso_U_12
_atom_site_aniso_U_13
_atom_site_aniso_U_23
Na1 Na1+ 0.0221(11) 0.0160(11) 0.0184(10) 0.0076(9) 0.0008(8) 0.0007(8)
Na2 Na1+ 0.0181(9) 0.0213(10) 0.0222(10) -.0010(7) 0.0027(6) -.0012(7)
K1 K1+ 0.0181(9) 0.0213(10) 0.0222(10) -.0010(7) 0.0027(6) -.0012(7)
Na3 Na1+ 0.0149(10) 0.0185(10) 0.0192(10) 0.0016(8) 0.0013(8) 0.0010(9)
Na4 Na1+ 0.0192(10) 0.0201(11) 0.0183(11) -.0014(9) -.0007(8) -.0010(9)
Na5 Na1+ 0.0149(10) 0.0257(12) 0.0204(11) -.0051(9) 0.0013(8) -.0029(9)
Na6 Na1+ 0.0198(10) 0.0250(12) 0.0147(10) 0.0011(9) 0.0024(8) 0.001(92)
Na7 Na1+ 0.0172(10) 0.0186(10) 0.0146(10) -.0030(8) 0.0011(8) -.0012(8)
Na8 Na1+ 0.0283(11) 0.0197(11) 0.0270(11) 0.0101(8) -.0018(8) 0.0016(8)
K2 K1+ 0.0283(11) 0.0197(11) 0.0270(11) 0.0101(8) -.0018(8) 0.0016(8)
Na9 Na1+ 0.0197(11) 0.0268(12) 0.0206(11) -.0082(9) 0.0011(9) -.0069(10)
K3 K1+ 0.0218(6) 0.0279(7) 0.0221(6) -.0030(5) 0.0030(5) -.0038(5)
K4 K1+ 0.0197(5) 0.0224(6) 0.0227(6) 0.0055(5) -.0032(5) 0.0004(5)
K5 K1+ 0.0315(7) 0.0297(7) 0.0211(6) -.0062(6) 0.0045(5) 0.0010(5)
Ge1 Ge4+ 0.0095(2) 0.0114(2) 0.0113(2) -.0004(2) 0.0010(2) 0.0008(2)
Ge2 Ge4+ 0.0105(2) 0.0092(2) 0.0112(2) 0.0000(2) -.0002(2) -.0001(2)
Ge3 Ge4+ 0.0120(2) 0.0200(3) 0.0117(2) 0.0011(2) 0.0013(2) 0.0017(2)
Ge4 Ge4+ 0.0119(2) 0.0143(3) 0.0115(2) 0.0000(2) -.0005(2) -.0012(2)
O1 O2- 0.0154(17) 0.0337(23) 0.0207(20) -.0049(16) -.0045(15) -.0045(18)
O2 O2- 0.0107(16) 0.0151(18) 0.0190(18) 0.0031(13) 0.0043(13) 0.0022(14)
O3 O2- 0.0152(16) 0.0146(18) 0.0126(17) -.0014(14) 0.0027(14) -.0006(14)
O4 O2- 0.0249(19) 0.0113(17) 0.0177(18) 0.0016(15) 0.0078(15) 0.0015(14)
O5 O2- 0.0155(17) 0.0170(19) 0.0249(20) 0.0039(14) -.0020(15) 0.0039(16)
O6 O2- 0.0145(16) 0.0153(18) 0.0164(18) -.0040(14) -.0023(14) -.0010(14)
O7 O2- 0.0173(17) 0.0158(18) 0.0149(18) 0.0002(14) 0.0004(14) -.0056(15)
O8 O2- 0.0201(18) 0.0307(22) 0.0228(20) 0.0105(17) 0.0099(16) 0.0087(17)
O9 O2- 0.0199(18) 0.0249(20) 0.0112(17) -.0016(15) 0.0047(14) 0.0020(15)
O10 O2- 0.0255(21) 0.0634(33) 0.0191(21) -.0167(22) -.0045(17) -.0020(21)
O11 O2- 0.0299(20) 0.0189(20) 0.0144(18) 0.0044(16) 0.0069(16) 0.0018(15)
O12 O2- 0.0277(20) 0.0197(20) 0.0118(17) 0.0001(16) 0.0028(15) -.0045(15)
O13 O2- 0.0164(18) 0.0402(25) 0.0248(21) -.0023(18) -.0040(16) -.0086(19)
O14 O2- 0.0276(20) 0.0173(19) 0.0159(18) 0.0041(16) 0.0046(15) 0.0022(15)
#End of TTdata_69564-ICSD