
#(C) 2019 by FIZ Karlsruhe - Leibniz Institute for Information Infrastructure.  All rights reserved.
data_69655-ICSD
_database_code_ICSD 69655
_audit_creation_date 1994-01-19
_audit_update_record 2012-02-01
_chemical_name_systematic 'Sodium trifluorocuprate'
_chemical_formula_structural 'Na (Cu F3)'
_chemical_formula_sum 'Cu1 F3 Na1'
_chemical_name_structure_type NaCuF3
_exptl_crystal_density_diffrn 4.03
_publ_section_title

;
Jahn-Teller-Effekt und Kristallstruktur-Verzerrung bei den Kupfer-
Fluoroperowskiten Na Cu F3 und Rb Cu F3
;
loop_
_citation_id
_citation_journal_full
_citation_year
_citation_journal_volume
_citation_page_first
_citation_page_last
_citation_journal_id_ASTM
primary 'Zeitschrift fuer Anorganische und Allgemeine Chemie (1950) (DE)' 1990
585 93 104 ZAACAB
loop_
_publ_author_name
'Kaiser, V.'
'Otto, M.'
'Binder, F.'
'Babel, D.'
_cell_length_a 5.391(2)
_cell_length_b 5.552(2)
_cell_length_c 7.928(2)
_cell_angle_alpha 90.66(2)
_cell_angle_beta 92.05(2)
_cell_angle_gamma 86.95(2)
_cell_volume 236.79
_cell_formula_units_Z 4
_symmetry_space_group_name_H-M 'P -1'
_symmetry_Int_Tables_number 2
_refine_ls_R_factor_all 0.04
loop_
_symmetry_equiv_pos_site_id
_symmetry_equiv_pos_as_xyz
1 '-x, -y, -z'
2 'x, y, z'
loop_
_atom_type_symbol
_atom_type_oxidation_number
Na1+ 1
Cu2+ 2
F1- -1
loop_
_atom_site_label
_atom_site_type_symbol
_atom_site_symmetry_multiplicity
_atom_site_Wyckoff_symbol
_atom_site_fract_x
_atom_site_fract_y
_atom_site_fract_z
_atom_site_B_iso_or_equiv
_atom_site_occupancy
_atom_site_attached_hydrogens
Na1 Na1+ 2 i 0.5097(3) 0.5527(3) 0.2430(2) . 1. 0
Na2 Na1+ 2 i -.0219(3) 0.0551(3) 0.2566(2) . 1. 0
Cu1 Cu2+ 1 d 0.5 0 0 . 1. 0
Cu2 Cu2+ 1 c 0 0.5 0 . 1. 0
Cu3 Cu2+ 1 f 0.5 0 0.5 . 1. 0
Cu4 Cu2+ 1 g 0 0.5 0.5 . 1. 0
F1 F1- 2 i 0.6778(3) 0.2763(3) 0.0528(2) . 1. 0
F2 F1- 2 i 0.2015(3) 0.2058(3) -.0625(2) . 1. 0
F3 F1- 2 i 0.7203(3) 0.3210(3) 0.4407(2) . 1. 0
F4 F1- 2 i 0.1960(3) 0.1981(3) 0.5472(2) . 1. 0
F5 F1- 2 i 0.3935(3) -.0404(3) 0.2720(2) . 1. 0
F6 F1- 2 i 0.1051(3) 0.4581(3) 0.2279(2) . 1. 0
loop_
_atom_site_aniso_label
_atom_site_aniso_type_symbol
_atom_site_aniso_U_11
_atom_site_aniso_U_22
_atom_site_aniso_U_33
_atom_site_aniso_U_12
_atom_site_aniso_U_13
_atom_site_aniso_U_23
Na1 Na1+ 0.0170(6) 0.0145(5) 0.0231(6) 0.0029(4) -.0014(5) 0.0014(4)
Na2 Na1+ 0.0163(6) 0.0167(6) 0.0211(6) -.0009(4) -.0007(4) 0.0001(4)
Cu1 Cu2+ 0.0082(2) 0.0071(2) 0.0108(2) 0.0001(1) -.0011(1) 0.0007(1)
Cu2 Cu2+ 0.0096(2) 0.0081(2) 0.0075(2) 0.0017(1) -.0004(1) 0.0007(1)
Cu3 Cu2+ 0.0089(2) 0.0097(2) 0.0080(2) 0.0019(1) -.0004(1) -.0004(1)
Cu4 Cu2+ 0.0080(2) 0.0070(2) 0.0109(2) 0.0005(1) -.0011(1) 0.0005(1)
F1 F1- 0.0157(7) 0.0122(7) 0.0196(8) -.0036(6) 0.0000(6) -.0012(5)
F2 F1- 0.0148(7) 0.0132(7) 0.0204(8) 0.0057(6) -.0048(6) -.0029(6)
F3 F1- 0.0131(7) 0.0140(7) 0.0209(8) -.0041(6) -.0037(6) 0.0032(6)
F4 F1- 0.0144(7) 0.0114(7) 0.0196(8) 0.0043(5) 0.0021(6) 0.0037(5)
F5 F1- 0.0164(7) 0.0159(7) 0.0103(6) 0.0009(6) -.0016(5) 0.0002(5)
F6 F1- 0.0164(7) 0.0181(8) 0.0098(6) -.0003(6) -.0011(5) 0.0022(5)
#End of TTdata_69655-ICSD