
#(C) 2019 by FIZ Karlsruhe - Leibniz Institute for Information Infrastructure.  All rights reserved.
data_69785-ICSD
_database_code_ICSD 69785
_audit_creation_date 1993-01-06
_chemical_name_systematic 'Sodium oxobis(phosphato)antimonate'
_chemical_formula_structural 'Na3 (Sb O (P O4)2)'
_chemical_formula_sum 'Na3 O9 P2 Sb1'
_exptl_crystal_density_diffrn 3.28
_publ_section_title 'Preparation and crystal structure of Na3SbO(PO4)2'
loop_
_citation_id
_citation_journal_full
_citation_year
_citation_journal_volume
_citation_page_first
_citation_page_last
_citation_journal_id_ASTM
primary 'Journal of Solid State Chemistry' 1991 90 367 372 JSSCBI
loop_
_publ_author_name
'Guyomard, D.'
'Pagnoux, C.'
'Zah-Letho, J.J.'
'Verbaere, A.'
'Piffard, Y.'
_cell_length_a 6.964(1)
_cell_length_b 9.284(2)
_cell_length_c 12.425(2)
_cell_angle_alpha 90.
_cell_angle_beta 90.
_cell_angle_gamma 90.
_cell_volume 803.32
_cell_formula_units_Z 4
_symmetry_space_group_name_H-M 'P 21 21 21'
_symmetry_Int_Tables_number 19
_refine_ls_R_factor_all 0.047
loop_
_symmetry_equiv_pos_site_id
_symmetry_equiv_pos_as_xyz
1 '-x, y+1/2, -z+1/2'
2 'x+1/2, -y+1/2, -z'
3 '-x+1/2, -y, z+1/2'
4 'x, y, z'
loop_
_atom_type_symbol
_atom_type_oxidation_number
Sb5+ 5
P5+ 5
Na1+ 1
O2- -2
loop_
_atom_site_label
_atom_site_type_symbol
_atom_site_symmetry_multiplicity
_atom_site_Wyckoff_symbol
_atom_site_fract_x
_atom_site_fract_y
_atom_site_fract_z
_atom_site_B_iso_or_equiv
_atom_site_occupancy
_atom_site_attached_hydrogens
Sb1 Sb5+ 4 a 0.02103(6) 0.2463(1) 0.00476(5) . 1. 0
P1 P5+ 4 a 0.2629(4) 0.5298(3) 0.9218(2) . 1. 0
P2 P5+ 4 a 0.7705(4) 0.3749(3) 0.2004(2) . 1. 0
Na1 Na1+ 4 a 0.7554(7) 0.5866(4) 0.9833(3) . 1. 0
Na2 Na1+ 4 a 0.3258(8) 0.2425(6) 0.2600(4) . 1. 0
Na3 Na1+ 4 a 0.3761(7) 0.3934(6) 0.6594(4) . 1. 0
O1 O2- 4 a 0.712(1) 0.4690(8) 0.6686(6) 1.1(1) 1. 0
O2 O2- 4 a 0.4079(9) 0.5486(7) 0.4850(6) 1.1(1) 1. 0
O3 O2- 4 a 0.451(1) 0.4553(8) 0.9691(6) 1.2(1) 1. 0
O4 O2- 4 a 0.726(1) 0.6968(8) 0.4444(5) 0.89(9) 1. 0
O5 O2- 4 a 0.588(1) 0.3046(8) 0.1439(6) 1.2(1) 1. 0
O6 O2- 4 a 0.755(1) 0.3374(8) 0.3169(6) 1.4(1) 1. 0
O7 O2- 4 a 0.255(1) 0.4907(8) 0.3026(6) 1.6(1) 1. 0
O8 O2- 4 a 0.241(1) 0.3181(9) 0.4605(7) 1.9(1) 1. 0
O9 O2- 4 a 0.548(1) 0.7100(8) 0.6549(6) 1.1(1) 1. 0
loop_
_atom_site_aniso_label
_atom_site_aniso_type_symbol
_atom_site_aniso_U_11
_atom_site_aniso_U_22
_atom_site_aniso_U_33
_atom_site_aniso_U_12
_atom_site_aniso_U_13
_atom_site_aniso_U_23
Sb1 Sb5+ 0.0046(1) 0.0105(1) 0.0109(2) 0.0000(3) 0.0004(2) -.0003(3)
P1 P5+ 0.0066(9) 0.0104(9) 0.015(1) -.0004(9) 0.0010(9) 0.0020(9)
P2 P5+ 0.0094(9) 0.0130(9) 0.0097(9) -.0006(9) -.0002(9) -.0006(9)
Na1 Na1+ 0.027(2) 0.018(2) 0.017(2) -.003(2) 0.000(2) 0.005(1)
Na2 Na1+ 0.055(3) 0.022(2) 0.030(2) -.014(3) 0.021(2) -.009(3)
Na3 Na1+ 0.025(2) 0.029(2) 0.026(2) -.008(2) 0.004(2) 0.000(2)
#End of TTdata_69785-ICSD