
#(C) 2019 by FIZ Karlsruhe - Leibniz Institute for Information Infrastructure.  All rights reserved.
data_69796-ICSD
_database_code_ICSD 69796
_audit_creation_date 1993-01-06
_audit_update_record 2014-02-01
_chemical_name_systematic
'Potassium sodium octaniobopentaphosphate(V) (2/1.73/1) - beta'
_chemical_formula_structural 'K2 Na1.73 (Nb8 P5 O34)'
_chemical_formula_sum 'K2 Na1.73 Nb8 O34 P5'
_chemical_name_structure_type K2Na2-xNb8P5O34
_exptl_crystal_density_diffrn 3.6
_publ_section_title

;
The niobium phosphate bronze beta-K2 Na2-x Nb8 P5 O34, second form of the
first member of the series (K3 Nb6 P4 O26)n K Nb2 PO8
;
loop_
_citation_id
_citation_journal_full
_citation_year
_citation_journal_volume
_citation_page_first
_citation_page_last
_citation_journal_id_ASTM
primary 'Journal of Solid State Chemistry' 1991 91 323 330 JSSCBI
loop_
_publ_author_name
'Benabbas, A.'
'Borel, M.M.'
'Grandin, A.'
'Chardon, J.'
'Leclaire, A.'
'Raveau, B.'
_cell_length_a 10.612(1)
_cell_length_b 10.612(1)
_cell_length_c 6.384(1)
_cell_angle_alpha 90.
_cell_angle_beta 90.
_cell_angle_gamma 90.
_cell_volume 718.93
_cell_formula_units_Z 1
_symmetry_space_group_name_H-M 'P -4 m 2'
_symmetry_Int_Tables_number 115
_refine_ls_R_factor_all 0.032
loop_
_symmetry_equiv_pos_site_id
_symmetry_equiv_pos_as_xyz
1 '-y, -x, -z'
2 'x, -y, z'
3 'y, x, -z'
4 '-x, y, z'
5 'y, -x, -z'
6 '-x, -y, z'
7 '-y, x, -z'
8 'x, y, z'
loop_
_atom_type_symbol
_atom_type_oxidation_number
Nb4+ 4.908
P5+ 5
O2- -2
Na1+ 1
K1+ 1
Na1+ 1
loop_
_atom_site_label
_atom_site_type_symbol
_atom_site_symmetry_multiplicity
_atom_site_Wyckoff_symbol
_atom_site_fract_x
_atom_site_fract_y
_atom_site_fract_z
_atom_site_B_iso_or_equiv
_atom_site_occupancy
_atom_site_attached_hydrogens
Nb1 Nb4+ 4 k 0.5 0.18295(6) 0.20093(9) 0.797(6) 1. 0
Nb2 Nb4+ 4 h 0.17682(3) 0.17682(3) 0 0.582(3) 1. 0
P1 P5+ 1 b 0.5 0.5 0 0.17(2) 1. 0
P2 P5+ 4 i 0.24040(9) 0.24040(9) 0.5 0.52(1) 1. 0
O1 O2- 2 g 0.5 0 0.256(1) 1.1(2) 1. 0
O2 O2- 8 l 0.3649(3) 0.1753(4) 0.0200(5) 1.02(4) 1. 0
O3 O2- 8 l 0.3793(3) 0.2155(5) 0.4548(5) 1.36(6) 1. 0
O4 O2- 4 k 0.5 0.3841(5) 0.151(1) 1.23(8) 1. 0
O5 O2- 4 j 0.1776(6) 0 0.0340(8) 1.32(8) 1. 0
O6 O2- 8 l 0.1592(3) 0.1978(3) 0.3114(5) 0.83(4) 1. 0
Na1 Na1+ 1 c 0.5 0.5 0.5 5.6(2) 0.73 0
K1 K1+ 1 d 0 0 0.5 2.84(6) 1. 0
K2 K1+ 2 g 0 0.5 0.2965(7) 3.28(8) 0.5 0
Na2 Na1+ 2 g 0 0.5 0.2965(7) 3.28(8) 0.5 0
#End of TTdata_69796-ICSD