
#(C) 2019 by FIZ Karlsruhe - Leibniz Institute for Information Infrastructure.  All rights reserved.
data_70121-ICSD
_database_code_ICSD 70121
_audit_creation_date 1997-11-10
_chemical_name_systematic 'Sodium sulfate carbonate (4/1.51/.49)'
_chemical_formula_structural 'Na4 (S O4)1.51 (C O3).49'
_chemical_formula_sum 'C0.49 Na4 O7.51 S1.51'
_chemical_name_structure_type Na4(SO4)2-x(CO3)x
_chemical_name_mineral Burkeite
_exptl_crystal_density_diffrn 2.6
_publ_section_title 'The crystal structure of synthetic burkeite'
loop_
_citation_id
_citation_journal_full
_citation_year
_citation_journal_volume
_citation_page_first
_citation_page_last
_citation_journal_id_ASTM
primary 'Neues Jahrbuch fuer Mineralogie, Monatshefte' 1988 1988 203 221 NJMMAW
loop_
_publ_author_name
'Giuseppetti, G.'
'Mazzi, F.'
'Tadini, C.'
_cell_length_a 5.198(1)
_cell_length_b 9.255(1)
_cell_length_c 7.085(1)
_cell_angle_alpha 90.
_cell_angle_beta 90.
_cell_angle_gamma 90.
_cell_volume 340.84
_cell_formula_units_Z 2
_symmetry_space_group_name_H-M 'P m n m Z'
_symmetry_Int_Tables_number 59
_refine_ls_R_factor_all 0.031
loop_
_symmetry_equiv_pos_site_id
_symmetry_equiv_pos_as_xyz
1 'x+1/2, -y, z+1/2'
2 '-x, -y, z+1/2'
3 'x+1/2, -y, -z'
4 '-x, -y, -z'
5 '-x+1/2, y, -z+1/2'
6 'x, y, -z+1/2'
7 '-x+1/2, y, z'
8 'x, y, z'
loop_
_atom_type_symbol
_atom_type_oxidation_number
Na1+ 1
C4+ 4
S6+ 6
O2- -2
loop_
_atom_site_label
_atom_site_type_symbol
_atom_site_symmetry_multiplicity
_atom_site_Wyckoff_symbol
_atom_site_fract_x
_atom_site_fract_y
_atom_site_fract_z
_atom_site_B_iso_or_equiv
_atom_site_occupancy
_atom_site_attached_hydrogens
Na1 Na1+ 4 f 0.25 0.7512(1) 0.0047(2) 2.39(3) 1. 0
Na2 Na1+ 2 a 0.25 0.4250(2) 0.25 5.79(8) 1. 0
Na3 Na1+ 2 b 0.75 0.8805(2) 0.25 2.45(4) 1. 0
C1 C4+ 2 b 0.75 0.5606(2) 0.25 1.84(3) 0.49(1) 0
S1 S6+ 2 b 0.75 0.5606(2) 0.25 1.84(3) 0.51 0
S2 S6+ 4 e 0.2942(3) 0.0896(1) 0.25 1.30(4) 0.5 0
O1 O2- 2 b 0.75 0.4216(4) 0.25 4.2(1) 0.83(2) 0
O2 O2- 4 e 0.5358(5) 0.6429(2) 0.25 2.7(1) 0.83 0
O3 O2- 4 f 0.75 0.4701(18) 0.0854(27) 5.9(6) 0.17 0
O4 O2- 8 g 0.9310(19) 0.5834(12) 0.0888(15) 4.5(3) 0.17 0
O5 O2- 8 g 0.1892(5) 0.1606(3) 0.0816(4) 2.9(1) 0.5 0
O6 O2- 4 e 0.2177(26) -.0651(3) 0.25 1.7(2) 0.5 0
O7 O2- 4 e 0.5755(7) 0.1071(4) 0.25 2.3(1) 0.5 0
#End of TTdata_70121-ICSD