
#(C) 2019 by FIZ Karlsruhe - Leibniz Institute for Information Infrastructure.  All rights reserved.
data_71107-ICSD
_database_code_ICSD 71107
_audit_creation_date 1993-01-06
_audit_update_record 2015-08-01
_chemical_name_systematic 'Sodium tecto-alumosilicodigermanate'
_chemical_formula_structural 'Na (Al Si Ge2 O8)'
_chemical_formula_sum 'Al1 Ge2 Na1 O8 Si1'
_chemical_name_structure_type Feldspar#-(TC)-Albite-NaAlSi3O8
_chemical_name_mineral Albite-Ge
_exptl_crystal_density_diffrn 3.28
_publ_section_title 'Order and anti-order in Ge-substituted alkali feldspars'
loop_
_citation_id
_citation_journal_full
_citation_year
_citation_journal_volume
_citation_page_first
_citation_page_last
_citation_journal_id_ASTM
primary 'European Journal of Mineralogy' 1991 3 739 749 EJMIER
loop_
_publ_author_name
'Kroll, H.'
'Floegel, J.'
'Breit, U.'
'Loens, J.'
'Pentinghaus, H.'
_cell_length_a 8.3314(8)
_cell_length_b 13.1562(6)
_cell_length_c 7.2657(6)
_cell_angle_alpha 94.255(6)
_cell_angle_beta 116.300(5)
_cell_angle_gamma 90.563(6)
_cell_volume 711.17
_cell_formula_units_Z 4
_symmetry_space_group_name_H-M 'C -1'
_symmetry_Int_Tables_number 2
_refine_ls_R_factor_all 0.044
loop_
_symmetry_equiv_pos_site_id
_symmetry_equiv_pos_as_xyz
1 '-x, -y, -z'
2 'x, y, z'
3 '-x+1/2, -y+1/2, -z'
4 'x+1/2, y+1/2, z'
loop_
_atom_type_symbol
_atom_type_oxidation_number
Na1+ 1
Al3+ 3
Si4+ 4
Ge4+ 4
Al3+ 3
Si4+ 4
Ge4+ 4
Al3+ 3
Si4+ 4
Ge4+ 4
Al3+ 3
Si4+ 4
Ge4+ 4
O2- -2
loop_
_atom_site_label
_atom_site_type_symbol
_atom_site_symmetry_multiplicity
_atom_site_Wyckoff_symbol
_atom_site_fract_x
_atom_site_fract_y
_atom_site_fract_z
_atom_site_B_iso_or_equiv
_atom_site_occupancy
_atom_site_attached_hydrogens
Na1 Na1+ 4 i 0.2738(5) 0.0150(6) 0.1262(8) 8.7 0.2 0
Na2 Na1+ 4 i 0.2743(10) -.0249(6) 0.1804(12) 1.51 0.2 0
Na3 Na1+ 4 i 0.2841(11) 0.0425(6) 0.0851(13) 1.51 0.2 0
Na4 Na1+ 4 i 0.2746(14) 0.0279(7) 0.1160(15) 1.51 0.2 0
Na5 Na1+ 4 i 0.2648(12) 0.0038(7) 0.1360(14) 1.51 0.2 0
Al1 Al3+ 4 i 0.00970(7) 0.16048(4) 0.21229(7) 0.76 0.3 0
Si1 Si4+ 4 i 0.00970(7) 0.16048(4) 0.21229(7) 0.76 0.19 0
Ge1 Ge4+ 4 i 0.00970(7) 0.16048(4) 0.21229(7) 0.76 0.511(5) 0
Al2 Al3+ 4 i 0.00281(7) 0.81284(4) 0.22977(8) 0.72 0.28 0
Si2 Si4+ 4 i 0.00281(7) 0.81284(4) 0.22977(8) 0.72 0.28 0
Ge2 Ge4+ 4 i 0.00281(7) 0.81284(4) 0.22977(8) 0.72 0.439(3) 0
Al3 Al3+ 4 i 0.68865(6) 0.10592(4) 0.31458(8) 0.79 0.19 0
Si3 Si4+ 4 i 0.68865(6) 0.10592(4) 0.31458(8) 0.79 0.29 0
Ge3 Ge4+ 4 i 0.68865(6) 0.10592(4) 0.31458(8) 0.79 0.519(3) 0
Al4 Al3+ 4 i 0.67883(7) 0.87553(4) 0.35555(8) 0.78 0.23 0
Si4 Si4+ 4 i 0.67883(7) 0.87553(4) 0.35555(8) 0.78 0.24 0
Ge4 Ge4+ 4 i 0.67883(5) 0.87553(4) 0.35555(8) 0.78 0.53(1) 0
O1 O2- 4 i 0.0081(4) 0.1289(2) 0.9782(4) 1.68 1. 0
O2 O2- 4 i 0.5815(3) 0.9883(2) 0.2740(4) 1.22 1. 0
O3 O2- 4 i 0.8195(4) 0.0974(2) 0.1882(5) 1.84 1. 0
O4 O2- 4 i 0.8127(4) 0.8402(3) 0.2455(6) 2.38 1. 0
O5 O2- 4 i 0.0076(4) 0.2863(2) 0.2837(4) 1.44 1. 0
O6 O2- 4 i 0.0181(4) 0.6837(2) 0.2042(5) 1.68 1. 0
O7 O2- 4 i 0.2006(4) 0.1077(2) 0.3807(4) 1.62 1. 0
O8 O2- 4 i 0.1887(4) 0.8655(3) 0.4314(5) 2.1 1. 0
loop_
_atom_site_aniso_label
_atom_site_aniso_type_symbol
_atom_site_aniso_beta_11
_atom_site_aniso_beta_22
_atom_site_aniso_beta_33
_atom_site_aniso_beta_12
_atom_site_aniso_beta_13
_atom_site_aniso_beta_23
Na1 Na1+ 0.0067(5) 0.0204(7) 0.0405(15) 0.0034(5) -.0013(7) -.0227(9)
Na2 Na1+ 0.0068(3) 0.0022(1) 0.0090(4) 0.0002(1) 0.0035(2) 0.0004(2)
Na3 Na1+ 0.0068(3) 0.0022(1) 0.0090(4) 0.0002(1) 0.0035(2) 0.0004(2)
Na4 Na1+ 0.0068(3) 0.0022(1) 0.0090(4) 0.0002(1) 0.0035(2) 0.0004(2)
Na5 Na1+ 0.0068(3) 0.0022(1) 0.0090(4) 0.0002(1) 0.0035(2) 0.0004(2)
Al1 Al3+ 0.00367(7) 0.00116(2) 0.00412(10) -.00030(3) 0.00200(6) 0.0(3)
Si1 Si4+ 0.00367(7) 0.00116(2) 0.00412(10) -.00030(3) 0.00200(6) 0.0(3)
Ge1 Ge4+ 0.00367(7) 0.00116(2) 0.00412(10) -.00030(3) 0.00200(6) 0.0(3)
Al2 Al3+ 0.00318(8) 0.00122(2) 0.00372(10) 0.00050(3) 0.00155(6) 0.00028(3)
Si2 Si4+ 0.00318(8) 0.00122(2) 0.00372(10) 0.00050(3) 0.00155(6) 0.00028(3)
Ge2 Ge4+ 0.00318(8) 0.00122(2) 0.00372(10) 0.00050(3) 0.00155(6) 0.00028(3)
Al3 Al3+ 0.00296(7) 0.00086(3) 0.00593(10) -.00010(3) 0.00146(10) 0.00003(3)
Si3 Si4+ 0.00296(7) 0.00086(3) 0.00593(10) -.00010(3) 0.00146(10) 0.00003(3)
Ge3 Ge4+ 0.00296(7) 0.00086(3) 0.00593(10) -.00010(3) 0.00146(10) 0.00003(3)
Al4 Al3+ 0.00326(7) 0.00092(2) 0.00558(10) 0.00022(3) 0.00163(6) 0.00034(3)
Si4 Si4+ 0.00326(7) 0.00092(2) 0.00558(10) 0.00022(3) 0.00163(6) 0.00034(3)
Ge4 Ge4+ 0.00326(7) 0.00092(2) 0.00558(10) 0.00022(3) 0.00163(6) 0.00034(3)
O1 O2- 0.0109(5) 0.0025(1) 0.0079(5) 0.0047(2) 0.0054(4) 0.0008(2)
O2 O2- 0.0045(3) 0.0012(1) 0.0097(5) 0.0001(1) 0.0019(3) 0.0009(2)
O3 O2- 0.0073(4) 0.0027(2) 0.0141(7) -.0015(4) 0.0067(5) -.0013(3)
O4 O2- 0.0080(5) 0.0042(2) 0.0188(9) 0.0017(3) 0.0089(6) 0.0008(3)
O5 O2- 0.0055(4) 0.0015(1) 0.0114(6) -.0004(2) 0.0031(4) -.0002(2)
O6 O2- 0.0064(4) 0.0019(1) 0.0106(6) 0.0009(2) 0.0012(4) 0.0005(2)
O7 O2- 0.0070(4) 0.0023(1) 0.0067(5) 0.0010(1) 0.0002(4) 0.0007(2)
O8 O2- 0.0083(5) 0.0025(2) 0.0095(6) -.0005(2) -.0010(4) -.0005(2)
#End of TTdata_71107-ICSD