
#(C) 2019 by FIZ Karlsruhe - Leibniz Institute for Information Infrastructure.  All rights reserved.
data_71230-ICSD
_database_code_ICSD 71230
_audit_creation_date 1993-01-06
_audit_update_record 2006-04-01
_chemical_name_systematic 'Disodium cobalt diphosphate(V) - blue, HT'
_chemical_formula_structural 'Na2 Co (P2 O7)'
_chemical_formula_sum 'Co1 Na2 O7 P2'
_exptl_crystal_density_diffrn 3.04
_cell_measurement_temperature 298.
_publ_section_title
'Crystal structures of two allotropic forms of Na2  Co P2 O7'
loop_
_citation_id
_citation_journal_full
_citation_year
_citation_journal_volume
_citation_page_first
_citation_page_last
_citation_journal_id_ASTM
primary 'Journal of Crystallographic and Spectroscopic Research' 1991 21 321 326
JCREDB
loop_
_publ_author_name
'Erragh, F.'
'Boukhari, A.'
'Elouadi, B.'
'Holt, E.M.'
_cell_length_a 7.713(2)
_cell_length_b 10.271(4)
_cell_length_c 15.378(6)
_cell_angle_alpha 90.
_cell_angle_beta 90.
_cell_angle_gamma 90.
_cell_volume 1218.25
_cell_formula_units_Z 8
_symmetry_space_group_name_H-M 'P 21 c n'
_symmetry_Int_Tables_number 33
_refine_ls_R_factor_all 0.099
loop_
_symmetry_equiv_pos_site_id
_symmetry_equiv_pos_as_xyz
1 'x, -y+1/2, z+1/2'
2 'x+1/2, y+1/2, -z+1/2'
3 'x+1/2, -y, -z'
4 'x, y, z'
loop_
_atom_type_symbol
_atom_type_oxidation_number
Co2+ 2
P5+ 5
Na1+ 1
O2- -2
loop_
_atom_site_label
_atom_site_type_symbol
_atom_site_symmetry_multiplicity
_atom_site_Wyckoff_symbol
_atom_site_fract_x
_atom_site_fract_y
_atom_site_fract_z
_atom_site_B_iso_or_equiv
_atom_site_occupancy
_atom_site_attached_hydrogens
Co1 Co2+ 4 a 0.5109 0.5045(2) 0.1269(2) . 1. 0
Co2 Co2+ 4 a 0.5382(5) 0.0042(2) 0.1178(2) . 1. 0
P1 P5+ 4 a 0.886(1) 0.0520(7) 0.1887(4) . 1. 0
P2 P5+ 4 a 0.173(1) 0.0466(6) 0.0606(3) . 1. 0
P3 P5+ 4 a 0.147(1) 0.4662(6) 0.0541(4) . 1. 0
P4 P5+ 4 a 0.890(1) 0.4756(5) 0.1963(3) . 1. 0
Na1 Na1+ 4 a 0.668(2) 0.2618(9) 0.3050(6) . 1. 0
Na2 Na1+ 4 a 0.390(2) 0.2492(8) -.0514(6) . 1. 0
Na3 Na1+ 4 a 0.215(2) 0.2634(10) 0.2268(6) . 1. 0
Na4 Na1+ 4 a 0.820(2) 0.2494(8) 0.0269(7) . 1. 0
O1 O2- 4 a 0.057(3) 0.102(2) 0.1440(11) . 1. 0
O2 O2- 4 a 0.737(2) 0.114(1) 0.1455(9) . 1. 0
O3 O2- 4 a -.091(3) 0.113(2) 0.2790(9) . 1. 0
O4 O2- 4 a 0.880(3) -.098(2) 0.1870(13) . 1. 0
O5 O2- 4 a 0.174(3) -.095(2) 0.064(1) . 1. 0
O6 O2- 4 a 0.355(2) 0.112(2) 0.0796(14) . 1. 0
O7 O2- 4 a 0.086(3) 0.105(2) -.0171(8) . 1. 0
O8 O2- 4 a 0.981(3) 0.420(2) 0.1101(10) . 1. 0
O9 O2- 4 a 0.108(3) 0.395(2) -.0318(11) . 1. 0
O10 O2- 4 a 0.150(3) 0.606(2) 0.049(1) . 1. 0
O11 O2- 4 a 0.302(3) 0.407(2) 0.0937(16) . 1. 0
O12 O2- 4 a 0.711(2) 0.412(1) 0.1816(9) . 1. 0
O13 O2- 4 a 0.974(3) 0.416(1) 0.2742(9) . 1. 0
O14 O2- 4 a 0.900(3) 0.622(1) 0.1941(9) . 1. 0
loop_
_atom_site_aniso_label
_atom_site_aniso_type_symbol
_atom_site_aniso_U_11
_atom_site_aniso_U_22
_atom_site_aniso_U_33
_atom_site_aniso_U_12
_atom_site_aniso_U_13
_atom_site_aniso_U_23
Co1 Co2+ 0.026(2) 0.023(1) 0.023(1) -.002(1) 0.010(1) 0.002(1)
Co2 Co2+ 0.012(1) 0.020(1) 0.012(1) -.002(1) 0.007(1) -.002
P1 P5+ 0.012(2) 0.031(3) 0.022(2) -.006(2) 0.006(2) -.005(2)
P2 P5+ 0.014(2) 0.029(3) 0.013(2) -.004(2) 0.001(2) -.002(2)
P3 P5+ 0.014(2) 0.037(3) 0.012(2) 0.003(2) 0.000(2) -.002(2)
P4 P5+ 0.011(2) 0.021(2) 0.009(2) 0.003(2) 0.002(1) -.003(1)
Na1 Na1+ 0.033(6) 0.036(5) 0.018(4) -.002(4) 0.008(4) -.002(3)
Na2 Na1+ 0.041(6) 0.035(6) 0.028(5) 0.000(4) -.002(5) -.006(3)
Na3 Na1+ 0.039(6) 0.046(6) 0.020(4) 0.009(5) -.006(5) -.002(4)
Na4 Na1+ 0.028(5) 0.031(5) 0.040(5) -.022(4) -.028(5) 0.022(3)
O1 O2- 0.062(16) 0.035(9) 0.035(10) 0.00(1) 0.022(11) -.010(7)
O2 O2- 0.006(6) 0.017(6) 0.021(7) -.003(4) -.009(5) 0.014(5)
O3 O2- 0.059(13) 0.049(10) 0.007(7) 0.037(10) -.005(8) 0.003(6)
O4 O2- 0.039(12) 0.045(11) 0.053(12) -.016(11) 0.006(10) -.007(9)
O5 O2- 0.051(13) 0.020(8) 0.020(8) 0.000(9) 0.001(8) 0.001(6)
O6 O2- 0.011(8) 0.081(16) 0.068(14) -.020(9) 0.004(8) 0.034(12)
O7 O2- 0.047(11) 0.038(8) 0.009(7) 0.022(8) 0.000(7) -.003(6)
O8 O2- 0.034(10) 0.044(9) 0.020(8) -.004(8) 0.025(7) -.011(6)
O9 O2- 0.066(15) 0.043(10) 0.028(9) 0.018(10) -.033(10) -.019(7)
O10 O2- 0.039(11) 0.053(11) 0.012(7) 0.002(9) 0.018(7) 0.007(7)
O11 O2- 0.023(10) 0.033(10) 0.103(19) -.002(8) -.018(12) 0.000(11)
O12 O2- 0.005(6) 0.022(7) 0.024(7) 0.009(5) -.011(5) -.017(5)
O13 O2- 0.048(10) 0.025(7) 0.013(7) -.030(7) -.017(7) 0.004(5)
O14 O2- 0.01420(27) 0.018(7) 0.020(7) -.003(6) 0.007(6) 0.000(5)
#End of TTdata_71230-ICSD