
#(C) 2019 by FIZ Karlsruhe - Leibniz Institute for Information Infrastructure.  All rights reserved.
data_71240-ICSD
_database_code_ICSD 71240
_audit_creation_date 1993-01-06
_chemical_name_systematic
'Rubidium sodium titanium oxide phosphate (0.50/0.50/1/1/1)'
_chemical_formula_structural '(Na0.505 Rb0.495) Ti O (P O4)'
_chemical_formula_sum 'Na0.505 O5 P1 Rb0.495 Ti1'
_chemical_name_structure_type KTiOPO4
_exptl_crystal_density_diffrn 3.28
_publ_section_title

;
Isomorphous substitution in non-linear optical KTiOPO4. Powder diffraction and
magic angle spinning nuclear magnetic resonance study of (K1/2Na1/2)TiOPO4 and
(Rb1/2Na1/2)TiOPO4
;
loop_
_citation_id
_citation_journal_full
_citation_year
_citation_journal_volume
_citation_page_first
_citation_page_last
_citation_journal_id_ASTM
primary 'Journal of Materials Chemistry' 1991 1 113 119 JMACEP
loop_
_publ_author_name
'Crenell, S.J.'
'Owen, J.J.'
'Grey, C.P.'
'Cheetham, A.K.'
'Kaduk, J.A.'
'Jarman, R.H.'
_cell_length_a 12.8273(6)
_cell_length_b 10.6052(5)
_cell_length_c 6.3347(3)
_cell_angle_alpha 90.
_cell_angle_beta 90.
_cell_angle_gamma 90.
_cell_volume 861.75
_cell_formula_units_Z 8
_symmetry_space_group_name_H-M 'P n 21 a'
_symmetry_Int_Tables_number 33
_refine_ls_R_factor_all 0.044
loop_
_symmetry_equiv_pos_site_id
_symmetry_equiv_pos_as_xyz
1 'x+1/2, y, -z+1/2'
2 '-x+1/2, y+1/2, z+1/2'
3 '-x, y+1/2, -z'
4 'x, y, z'
loop_
_atom_type_symbol
_atom_type_oxidation_number
Ti4+ 4
P5+ 5
Na1+ 1
Rb1+ 1
Na1+ 1
Rb1+ 1
O2- -2
loop_
_atom_site_label
_atom_site_type_symbol
_atom_site_symmetry_multiplicity
_atom_site_Wyckoff_symbol
_atom_site_fract_x
_atom_site_fract_y
_atom_site_fract_z
_atom_site_B_iso_or_equiv
_atom_site_occupancy
_atom_site_attached_hydrogens
Ti1 Ti4+ 4 a 0.3730(6) 0 0.4704(13) 0.0054(11) 1. 0
Ti2 Ti4+ 4 a 0.2504(10) 0.2654(16) 0.2466(13) 0.0054(11) 1. 0
P1 P5+ 4 a 0.4959(5) 0.2660(11) 0.3349(7) 0.0008(7) 1. 0
P2 P5+ 4 a 0.1854(3) 0.5201(10) 0.4807(11) 0.0008(7) 1. 0
Na1 Na1+ 4 a 0.3512(9) 0.2967(12) 0.7417(18) 0.0302(15) 0.97(3) 0
Rb1 Rb1+ 4 a 0.3512(9) 0.2967(12) 0.7417(18) 0.0302(15) 0.03(3) 0
Na2 Na1+ 4 a 0.0988(5) 0.0745(10) 0.6613(10) 0.0302(15) 0.04(3) 0
Rb2 Rb1+ 4 a 0.0988(5) 0.0745(10) 0.6613(10) 0.0302(15) 0.96(3) 0
O1 O2- 4 a 0.4856(5) 0.149(1) 0.475(1) 0.0090(3) 1. 0
O2 O2- 4 a 0.5119(5) 0.3838(9) 0.4869(10) 0.0090(3) 1. 0
O3 O2- 4 a 0.4037(6) 0.290(1) 0.1856(8) 0.0090(3) 1. 0
O4 O2- 4 a 0.5976(6) 0.2544(10) 0.2022(8) 0.0090(3) 1. 0
O5 O2- 4 a 0.1222(5) 0.5446(9) 0.2875(8) 0.0090(3) 1. 0
O6 O2- 4 a 0.1083(5) 0.4932(10) 0.6711(9) 0.0090(3) 1. 0
O7 O2- 4 a 0.2520(5) 0.6394(9) 0.5177(9) 0.0090(3) 1. 0
O8 O2- 4 a 0.2597(5) 0.4083(10) 0.4435(9) 0.0090(3) 1. 0
O9 O2- 4 a 0.2193(5) 0.652(1) -.0491(10) 0.0090(3) 1. 0
O10 O2- 4 a 0.2280(6) 0.3956(9) 0.0139(9) 0.0090(3) 1. 0
#End of TTdata_71240-ICSD