
#(C) 2019 by FIZ Karlsruhe - Leibniz Institute for Information Infrastructure.  All rights reserved.
data_71546-ICSD
_database_code_ICSD 71546
_audit_creation_date 1993-01-06
_audit_update_record 2008-02-01
_chemical_name_systematic 'Sodium gallium pentatitanate'
_chemical_formula_structural 'Na Ga (Ti5 O12)'
_chemical_formula_sum 'Ga1 Na1 O12 Ti5'
_exptl_crystal_density_diffrn 3.88
_cell_measurement_temperature 295.
_publ_section_title 'Structure of Na Ga Ti5 O12'
loop_
_citation_id
_citation_journal_full
_citation_year
_citation_journal_volume
_citation_page_first
_citation_page_last
_citation_journal_id_ASTM
primary 'Acta Crystallographica, Section C: Crystal Structure Communications'
1992 48 607 610 ACSCEE
loop_
_publ_author_name
'Michiue, Y.'
'Watanabe, M.'
'Kitami, Y.'
'Fujiki, Y.'
_cell_length_a 15.221(2)
_cell_length_b 3.7310(5)
_cell_length_c 9.3273(9)
_cell_angle_alpha 90.
_cell_angle_beta 122.042(6)
_cell_angle_gamma 90.
_cell_volume 449.
_cell_formula_units_Z 2
_symmetry_space_group_name_H-M 'C 1 2/m 1'
_symmetry_Int_Tables_number 12
_refine_ls_R_factor_all 0.024
loop_
_symmetry_equiv_pos_site_id
_symmetry_equiv_pos_as_xyz
1 '-x, y, -z'
2 '-x, -y, -z'
3 'x, -y, z'
4 'x, y, z'
5 '-x+1/2, y+1/2, -z'
6 '-x+1/2, -y+1/2, -z'
7 'x+1/2, -y+1/2, z'
8 'x+1/2, y+1/2, z'
loop_
_atom_type_symbol
_atom_type_oxidation_number
Na1+ 1
Ti4+ 4
Ga3+ 3
Ti4+ 4
Ga3+ 3
Ti4+ 4
Ga3+ 3
O2- -2
loop_
_atom_site_label
_atom_site_type_symbol
_atom_site_symmetry_multiplicity
_atom_site_Wyckoff_symbol
_atom_site_fract_x
_atom_site_fract_y
_atom_site_fract_z
_atom_site_B_iso_or_equiv
_atom_site_occupancy
_atom_site_attached_hydrogens
Na1 Na1+ 2 a 0 0 0 . 1. 0
Ti1 Ti4+ 4 i 0.39941(2) 0 0.50918(3) . 0.894(1) 0
Ga1 Ga3+ 4 i 0.39941(2) 0 0.50918(3) . 0.106(1) 0
Ti2 Ti4+ 4 i 0.34252(2) 0 0.12173(3) . 0.747(2) 0
Ga2 Ga3+ 4 i 0.34252(2) 0 0.12173(3) . 0.253(2) 0
Ti3 Ti4+ 4 i 0.27837(2) 0 0.75087(3) . 0.859 0
Ga3 Ga3+ 4 i 0.27837(2) 0 0.75087(3) . 0.141 0
O1 O2- 4 i 0.19699(9) 0 0.89370(14) . 1. 0
O2 O2- 4 i 0.39302(9) 0 0.98421(15) . 1. 0
O3 O2- 4 i 0.2593(1) 0 0.26114(15) . 1. 0
O4 O2- 4 i 0.13415(10) 0 0.54100(15) . 1. 0
O5 O2- 4 i 0.45799(9) 0 0.34194(15) . 1. 0
O6 O2- 4 i 0.35873(11) 0 0.66449(17) . 1. 0
loop_
_atom_site_aniso_label
_atom_site_aniso_type_symbol
_atom_site_aniso_beta_11
_atom_site_aniso_beta_22
_atom_site_aniso_beta_33
_atom_site_aniso_beta_12
_atom_site_aniso_beta_13
_atom_site_aniso_beta_23
Na1 Na1+ 0.00436(13) 0.0239(12) 0.04639(74) 0 0.01198(28) 0
Ti1 Ti4+ 0.00065(1) 0.0072(2) 0.00182(3) 0 0.00044(2) 0
Ga1 Ga3+ 0.00065(1) 0.0072(2) 0.00182(3) 0 0.00044(2) 0
Ti2 Ti4+ 0.00063(1) 0.0057(1) 0.00127(3) 0 0.00034(1) 0
Ga2 Ga3+ 0.00063(1) 0.0057(1) 0.00127(3) 0 0.00034(1) 0
Ti3 Ti4+ 0.00080(1) 0.0052(1) 0.00194(3) 0 0.00073(2) 0
Ga3 Ga3+ 0.00080(1) 0.0052(1) 0.00194(3) 0 0.00073(2) 0
O1 O2- 0.00076(5) 0.0051(6) 0.00193(13) 0 0.00046(7) 0
O2 O2- 0.00067(5) 0.0157(8) 0.00190(13) 0 0.00058(7) 0
O3 O2- 0.00087(5) 0.0056(7) 0.00241(13) 0 0.00068(7) 0
O4 O2- 0.00091(5) 0.0068(7) 0.00208(13) 0 0.00047(7) 0
O5 O2- 0.00059(5) 0.0150(8) 0.00150(13) 0 0.00025(17) 0
O6 O2- 0.00146(6) 0.0173(8) 0.00341(15) 0 0.00171(8) 0
#End of TTdata_71546-ICSD