
#(C) 2019 by FIZ Karlsruhe - Leibniz Institute for Information Infrastructure.  All rights reserved.
data_71578-ICSD
_database_code_ICSD 71578
_audit_creation_date 1993-01-06
_chemical_name_systematic 'Trithallium sodium bis(phosphato)tetraniobate'
_chemical_formula_structural 'Tl3 Na (P O4)2 (Nb4 O9)'
_chemical_formula_sum 'Na1 Nb4 O17 P2 Tl3'
_exptl_crystal_density_diffrn 5.76
_publ_section_title
'Preparation and crystal structure of the phosphato-niobate Tl3NaNb4O9(PO4)2'
loop_
_citation_id
_citation_journal_full
_citation_year
_citation_journal_volume
_citation_page_first
_citation_page_last
_citation_journal_id_ASTM
primary 'European Journal of Solid State and Inorganic Chemistry' 1992 29 563
572 EJSCE5
loop_
_publ_author_name
'Fakhfakh, M.'
'Verbaere, A.'
'Jouini, N.'
_cell_length_a 9.891(1)
_cell_length_b 21.298(2)
_cell_length_c 7.346(1)
_cell_angle_alpha 90.
_cell_angle_beta 90.
_cell_angle_gamma 90.
_cell_volume 1547.5
_cell_formula_units_Z 4
_symmetry_space_group_name_H-M 'C 2 c m'
_symmetry_Int_Tables_number 40
_refine_ls_R_factor_all 0.047
loop_
_symmetry_equiv_pos_site_id
_symmetry_equiv_pos_as_xyz
1 'x, -y, z+1/2'
2 'x, y, -z+1/2'
3 'x, -y, -z'
4 'x, y, z'
5 'x+1/2, -y+1/2, z+1/2'
6 'x+1/2, y+1/2, -z+1/2'
7 'x+1/2, -y+1/2, -z'
8 'x+1/2, y+1/2, z'
loop_
_atom_type_symbol
_atom_type_oxidation_number
Tl1+ 1
Nb5+ 5
P5+ 5
Na1+ 1
O2- -2
loop_
_atom_site_label
_atom_site_type_symbol
_atom_site_symmetry_multiplicity
_atom_site_Wyckoff_symbol
_atom_site_fract_x
_atom_site_fract_y
_atom_site_fract_z
_atom_site_B_iso_or_equiv
_atom_site_occupancy
_atom_site_attached_hydrogens
Tl1 Tl1+ 4 b 0.1715(3) 0.14323(9) 0.25 . 1. 0
Tl2 Tl1+ 4 b 0.1622(3) 0.47270(9) 0.25 . 1. 0
Tl3 Tl1+ 4 b -.0173(3) 0.2991(1) 0.25 . 1. 0
Nb1 Nb5+ 4 a 0 0 0 . 1. 0
Nb2 Nb5+ 8 c 0.3086(3) 0.6531(1) -.0019(5) . 1. 0
Nb3 Nb5+ 4 b 0.5917(4) 0.2636(2) 0.25 . 1. 0
P1 P5+ 4 b 0.727(1) 0.4124(4) 0.25 0.1(1) 1. 0
P2 P5+ 4 b 0.534(1) 0.1147(5) 0.25 0.6(2) 1. 0
Na1 Na1+ 4 a 0.370(2) 0 0 0.5(2) 1. 0
O1 O2- 8 c 0.658(2) 0.4398(8) 0.074(3) 0.4(3) 1. 0
O2 O2- 8 c 0.199(2) 0.2718(8) 0.938(3) 0.2(3) 1. 0
O3 O2- 8 c 0.373(2) 0.4355(9) 0.038(3) 0.4(3) 1. 0
O4 O2- 8 c 0.459(2) 0.303(1) 0.069(3) 0.8(3) 1. 0
O5 O2- 8 c 0.622(2) 0.1085(9) 0.078(3) 0.4(3) 1. 0
O6 O2- 4 b 0.706(3) 0.340(1) 0.25 0.4(4) 1. 0
O7 O2- 4 b 0.226(3) 0.351(1) 0.25 0.1(4) 1. 0
O8 O2- 4 b 0.362(3) 0.646(1) 0.25 0.6(4) 1. 0
O9 O2- 4 b 0.030(3) 0.029(1) 0.25 0.6(4) 1. 0
O10 O2- 4 b 0.482(3) 0.186(1) 0.25 0.4(4) 1. 0
O11 O2- 4 b 0.417(3) 0.068(1) 0.25 0.6(5) 1. 0
O12 O2- 4 b 0.379(3) 0.923(2) 0.25 1.2(6) 1. 0
loop_
_atom_site_aniso_label
_atom_site_aniso_type_symbol
_atom_site_aniso_beta_11
_atom_site_aniso_beta_22
_atom_site_aniso_beta_33
_atom_site_aniso_beta_12
_atom_site_aniso_beta_13
_atom_site_aniso_beta_23
Tl1 Tl1+ 0.0058(2) 0.00071(3) 0.0090(3) 0.0003(2) 0 0
Tl2 Tl1+ 0.0066(2) 0.00072(3) 0.0105(4) 0.0023(2) 0 0
Tl3 Tl1+ 0.0038(2) 0.00090(4) 0.0153(5) -.0001(2) 0 0
Nb1 Nb5+ 0.0011(3) 0.00005(5) 0.0012(5) 0 0 0.0001(3)
Nb2 Nb5+ 0.0020(2) 0.00010(3) 0.0015(3) -.0004(2) 0.0001(7) -.0001(3)
Nb3 Nb5+ 0.0013(3) 0.00013(6) 0.0011(5) 0.0008(2) 0 0
#End of TTdata_71578-ICSD