
#(C) 2019 by FIZ Karlsruhe - Leibniz Institute for Information Infrastructure.  All rights reserved.
data_71786-ICSD
_database_code_ICSD 71786
_audit_creation_date 1993-08-22
_chemical_name_systematic
'Sodium selenate(VI) - dihydrogen selenate(IV) - water (1/1/1)'
_chemical_formula_structural '(Na2 Se O4) (H2 Se O3) (H2 O)'
_chemical_formula_sum 'H4 Na2 O8 Se2'
_exptl_crystal_density_diffrn 3.
_cell_measurement_temperature 299.
_publ_section_title
'Structure and polarized IR and Raman spectra of Na2SeO4.H2SeO3.H2O crystal'
loop_
_citation_id
_citation_journal_full
_citation_year
_citation_journal_volume
_citation_page_first
_citation_page_last
_citation_journal_id_ASTM
primary 'Journal of Molecular Structure' 1991 250 13 45 JMOSB4
loop_
_publ_author_name
'Baran, J.'
'Lis, T.'
'Marchewka, M.'
'Ratajczak, H.'
_cell_length_a 6.915(6)
_cell_length_b 11.193(12)
_cell_length_c 9.615(10)
_cell_angle_alpha 90.
_cell_angle_beta 90.
_cell_angle_gamma 90.
_cell_volume 744.2
_cell_formula_units_Z 4
_symmetry_space_group_name_H-M 'C m c 21'
_symmetry_Int_Tables_number 36
_refine_ls_R_factor_all 0.049
loop_
_symmetry_equiv_pos_site_id
_symmetry_equiv_pos_as_xyz
1 'x, -y, z+1/2'
2 '-x, -y, z+1/2'
3 '-x, y, z'
4 'x, y, z'
5 'x+1/2, -y+1/2, z+1/2'
6 '-x+1/2, -y+1/2, z+1/2'
7 '-x+1/2, y+1/2, z'
8 'x+1/2, y+1/2, z'
loop_
_atom_type_symbol
_atom_type_oxidation_number
Se6+ 6
Se4+ 4
Na1+ 1
O2- -2
H1+ 1
loop_
_atom_site_label
_atom_site_type_symbol
_atom_site_symmetry_multiplicity
_atom_site_Wyckoff_symbol
_atom_site_fract_x
_atom_site_fract_y
_atom_site_fract_z
_atom_site_B_iso_or_equiv
_atom_site_occupancy
_atom_site_attached_hydrogens
Se1 Se6+ 4 a 0 0.09509(13) 0.25 . 1. 0
Se2 Se4+ 4 a 0 0.44023(14) 0.38213(22) . 1. 0
Na1 Na1+ 8 b 0.2640(8) 0.3316(7) 0.0733(10) . 1. 0
O1 O2- 4 a 0 0.2292(12) 0.1846(15) . 1. 0
O2 O2- 4 a 0 0.1036(12) 0.4162(12) . 1. 0
O3 O2- 8 b 0.1965(13) 0.0232(9) 0.1980(11) . 1. 0
O4 O2- 8 b 0.1873(16) 0.3695(11) 0.4705(11) . 1. 0
O5 O2- 4 a 0 0.5749(10) 0.4559(14) . 1. 0
O6 O2- 4 a 0.5 0.2643(17) 0.2415(27) . 1. 0
H1 H1+ 8 b 0.279(23) 0.396(21) 0.540(17) 0.05 1. 0
H2 H1+ 4 a 0.5 0.181(6) 0.267(21) 0.05 1. 0
H3 H1+ 4 a 0.5 0.315(16) 0.323(14) 0.05 1. 0
loop_
_atom_site_aniso_label
_atom_site_aniso_type_symbol
_atom_site_aniso_U_11
_atom_site_aniso_U_22
_atom_site_aniso_U_33
_atom_site_aniso_U_12
_atom_site_aniso_U_13
_atom_site_aniso_U_23
Se1 Se6+ 0.0047(7) 0.0042(7) 0.0039(7) 0 0 -.0001(6)
Se2 Se4+ 0.0056(8) 0.0047(8) 0.0038(7) 0 0 -.0014(6)
Na1 Na1+ 0.0085(22) 0.0142(26) 0.0198(23) 0.0010(24) 0.0002(24) 0.0046(18)
O1 O2- 0.0039(56) 0.0134(66) 0.0169(66) 0 0 0.0055(53)
O2 O2- 0.0003 0.0207(58) 0.0003 0 0 -.0115(42)
O3 O2- 0.0058(39) 0.0111(43) 0.0099(41) 0.0076(31) 0.0009(30) -.0006(35)
O4 O2- 0.0160(52) 0.0182(51) 0.0158(53) 0.0099(41) -.0092(36) -.0059(41)
O5 O2- 0.0046(54) 0.0005(52) 0.0110(54) 0 0 -.0006(39)
O6 O2- 0.067(15) 0.0284(98) 0.056(14) 0 0 -.003(13)
#End of TTdata_71786-ICSD