
#(C) 2019 by FIZ Karlsruhe - Leibniz Institute for Information Infrastructure.  All rights reserved.
data_71928-ICSD
_database_code_ICSD 71928
_audit_creation_date 1993-08-22
_chemical_name_systematic 'Potassium sodium oxotitanium phosphate (0.4/0.6/1/1)'
_chemical_formula_structural 'K0.42 Na0.58 (Ti O) (P O4)'
_chemical_formula_sum 'K0.42 Na0.58 O5 P1 Ti1'
_chemical_name_structure_type KFePO4F
_exptl_crystal_density_diffrn 2.94
_publ_section_title

;
Isomorphous substitution in KTiOPO4: a single-crystal diffractionstudy of
members of the K1-xNaxTiOPO4 solid solution
;
loop_
_citation_id
_citation_journal_full
_citation_year
_citation_journal_volume
_citation_page_first
_citation_page_last
_citation_journal_id_ASTM
primary 'Chemistry of Materials' 1992 4 82 88 CMATEX
loop_
_publ_author_name
'Crennell, S.J.'
'Morris, R.E.'
'Cheetham, A.K.'
'Jarman, R.H.'
_cell_length_a 12.7298(21)
_cell_length_b 10.6073(13)
_cell_length_c 6.3074(4)
_cell_angle_alpha 90.
_cell_angle_beta 90.
_cell_angle_gamma 90.
_cell_volume 851.68
_cell_formula_units_Z 8
_symmetry_space_group_name_H-M 'P n 21 a'
_symmetry_Int_Tables_number 33
_refine_ls_R_factor_all 0.045
loop_
_symmetry_equiv_pos_site_id
_symmetry_equiv_pos_as_xyz
1 'x+1/2, y, -z+1/2'
2 '-x+1/2, y+1/2, z+1/2'
3 '-x, y+1/2, -z'
4 'x, y, z'
loop_
_atom_type_symbol
_atom_type_oxidation_number
Ti4+ 4
P5+ 5
K1+ 1
Na1+ 1
K1+ 1
Na1+ 1
O2- -2
loop_
_atom_site_label
_atom_site_type_symbol
_atom_site_symmetry_multiplicity
_atom_site_Wyckoff_symbol
_atom_site_fract_x
_atom_site_fract_y
_atom_site_fract_z
_atom_site_B_iso_or_equiv
_atom_site_occupancy
_atom_site_attached_hydrogens
Ti1 Ti4+ 4 a 0.37293(2) 0.0108(1) 0.49432 . 1. 0
Ti2 Ti4+ 4 a 0.24501(1) 0.2629(1) 0.26564(3) . 1. 0
P1 P5+ 4 a 0.49518(3) 0.2751(1) 0.33889(6) . 1. 0
P2 P5+ 4 a 0.18385(3) 0.5243(1) 0.49875(6) . 1. 0
K1 K1+ 4 a 0.381(1) 0.327(1) 0.786(2) 0.026(3) 0.0669(13) 0
Na1 Na1+ 4 a 0.3488(2) 0.2950(2) 0.7686(2) . 0.9332(13) 0
K2 K1+ 4 a 0.09840(5) 0.0747(1) 0.6793(1) . 0.773(7) 0
Na2 Na1+ 4 a 0.0989(6) 0.0581(7) 0.773(1) 0.028(1) 0.227(7) 0
O1 O2- 4 a 0.4822(1) 0.1664(1) 0.4931(2) . 1. 0
O2 O2- 4 a 0.50553(9) 0.3985(1) 0.4683(2) . 1. 0
O3 O2- 4 a 0.39902(8) 0.2914(1) 0.1922(2) . 1. 0
O4 O2- 4 a 0.59272(7) 0.2559(1) 0.1978(2) . 1. 0
O5 O2- 4 a 0.1157(1) 0.5526(1) 0.3047(2) . 1. 0
O6 O2- 4 a 0.11130(9) 0.5033(1) 0.6870(2) . 1. 0
O7 O2- 4 a 0.2553(1) 0.6393(1) 0.5316(2) . 1. 0
O8 O2- 4 a 0.2552(1) 0.4093(1) 0.4642(2) . 1. 0
O9 O2- 4 a 0.22728(9) 0.6545(1) -.0347(2) . 1. 0
O10 O2- 4 a 0.2240(1) 0.3986(1) 0.0275(2) . 1. 0
loop_
_atom_site_aniso_label
_atom_site_aniso_type_symbol
_atom_site_aniso_U_11
_atom_site_aniso_U_22
_atom_site_aniso_U_33
_atom_site_aniso_U_12
_atom_site_aniso_U_13
_atom_site_aniso_U_23
Ti1 Ti4+ 0.00609(5) 0.00461(5) 0.00488(5) -.00039(5) -.00014(4) 0.00061(5)
Ti2 Ti4+ 0.00534(5) 0.00436(5) 0.00604(5) 0.00070(5) -.00042(4) -.00025(5)
P1 P5+ 0.00462(9) 0.0051(1) 0.0072(1) -.00079(7) -.00013(7) 0.00046(8)
P2 P5+ 0.0074(1) 0.0047(1) 0.00471(9) 0.00019(7) -.00009(8) -.00066(7)
Na1 Na1+ 0.041(1) 0.0247(7) 0.0208(5) -.0066(7) -.0029(6) -.0011(5)
K2 K1+ 0.0136(2) 0.0253(3) 0.0253(3) 0.0011(2) -.0064(2) 0.0020(2)
O1 O2- 0.0103(3) 0.0103(3) 0.0120(4) 0.0036(3) 0.0025(3) 0.0051(3)
O2 O2- 0.0085(3) 0.0088(3) 0.0139(4) -.0024(2) -.0008(3) 0.0041(3)
O3 O2- 0.0054(3) 0.0104(3) 0.0094(3) 0.0001(2) -.0008(2) 0.0016(3)
O4 O2- 0.0057(2) 0.0115(3) 0.0107(3) -.0001(2) 0.0008(2) -.0014(3)
O5 O2- 0.0117(3) 0.0119(4) 0.0051(3) 0.0027(3) 0.0008(2) 0.0002(2)
O6 O2- 0.0109(3) 0.0113(3) 0.0056(2) 0.0022(3) -.0006(2) 0.0001(3)
O7 O2- 0.0108(3) 0.0078(3) 0.0108(3) 0.0026(2) -.0028(3) -.0037(3)
O8 O2- 0.0117(3) 0.0076(3) 0.0105(3) 0.0033(2) 0.0028(3) 0.0032(3)
O9 O2- 0.0089(3) 0.0073(3) 0.0091(3) 0.0022(2) -.0001(3) -.0023(2)
O10 O2- 0.0092(3) 0.0081(3) 0.0096(3) 0.0030(2) 0.0002(3) 0.0017(2)
#End of TTdata_71928-ICSD