
#(C) 2019 by FIZ Karlsruhe - Leibniz Institute for Information Infrastructure.  All rights reserved.
data_71929-ICSD
_database_code_ICSD 71929
_audit_creation_date 1993-08-22
_chemical_name_systematic 'Potassium sodium oxotitanium phosphate (0.4/0.6/1/1)'
_chemical_formula_structural 'K0.433 Na0.567 (Ti O) (P O4)'
_chemical_formula_sum 'K0.433 Na0.567 O5 P1 Ti1'
_chemical_name_structure_type KFePO4F
_exptl_crystal_density_diffrn 2.94
_publ_section_title

;
Isomorphous substitution in KTiOPO4: a single-crystal diffractionstudy of
members of the K1-xNaxTiOPO4 solid solution
;
loop_
_citation_id
_citation_journal_full
_citation_year
_citation_journal_volume
_citation_page_first
_citation_page_last
_citation_journal_id_ASTM
primary 'Chemistry of Materials' 1992 4 82 88 CMATEX
loop_
_publ_author_name
'Crennell, S.J.'
'Morris, R.E.'
'Cheetham, A.K.'
'Jarman, R.H.'
_cell_length_a 12.7378(9)
_cell_length_b 10.6081(15)
_cell_length_c 6.3077(5)
_cell_angle_alpha 90.
_cell_angle_beta 90.
_cell_angle_gamma 90.
_cell_volume 852.32
_cell_formula_units_Z 8
_symmetry_space_group_name_H-M 'P n 21 a'
_symmetry_Int_Tables_number 33
_refine_ls_R_factor_all 0.031
loop_
_symmetry_equiv_pos_site_id
_symmetry_equiv_pos_as_xyz
1 'x+1/2, y, -z+1/2'
2 '-x+1/2, y+1/2, z+1/2'
3 '-x, y+1/2, -z'
4 'x, y, z'
loop_
_atom_type_symbol
_atom_type_oxidation_number
Ti4+ 4
P5+ 5
K1+ 1
Na1+ 1
K1+ 1
Na1+ 1
O2- -2
loop_
_atom_site_label
_atom_site_type_symbol
_atom_site_symmetry_multiplicity
_atom_site_Wyckoff_symbol
_atom_site_fract_x
_atom_site_fract_y
_atom_site_fract_z
_atom_site_B_iso_or_equiv
_atom_site_occupancy
_atom_site_attached_hydrogens
Ti1 Ti4+ 4 a 0.37298(1) 0.99779(8) 0.49372(2) . 1. 0
Ti2 Ti4+ 4 a 0.24527(1) 0.25018(8) 0.26508(2) . 1. 0
P1 P5+ 4 a 0.49540(2) 0.26205(8) 0.33875(5) . 1. 0
P2 P5+ 4 a 0.18392(2) 0.51134(8) 0.49832(5) . 1. 0
K1 K1+ 4 a 0.3801(8) 0.319(1) 0.783(2) 0.0023(2) 0.056(6) 0
Na1 Na1+ 4 a 0.3489(1) 0.2819(1) 0.7677(2) . 0.944(2) 0
K2 K1+ 4 a 0.09819(4) 0.06176(9) 0.6785(1) . 0.810(4) 0
Na2 Na1+ 4 a 0.1000(5) 0.0431(6) 0.778(1) 0.0030(1) 0.190(1) 0
O1 O2- 4 a 0.48213(8) 0.1532(1) 0.4928(2) . 1. 0
O2 O2- 4 a 0.50561(7) 0.3856(1) 0.4690(2) . 1. 0
O3 O2- 4 a 0.39919(6) 0.2786(1) 0.1917(1) . 1. 0
O4 O2- 4 a 0.59293(6) 0.2430(1) 0.1979(1) . 1. 0
O5 O2- 4 a 0.11605(8) 0.5398(1) 0.3035(2) . 1. 0
O6 O2- 4 a 0.11112(7) 0.4902(1) 0.6867(1) . 1. 0
O7 O2- 4 a 0.25635(8) 0.6265(1) 0.5312(2) . 1. 0
O8 O2- 4 a 0.25533(7) 0.3966(1) 0.4640(2) . 1. 0
O9 O2- 4 a 0.22710(7) 0.6417(1) 0.9645(1) . 1. 0
O10 O2- 4 a 0.22419(7) 0.3858(1) 0.0270(2) . 1. 0
loop_
_atom_site_aniso_label
_atom_site_aniso_type_symbol
_atom_site_aniso_U_11
_atom_site_aniso_U_22
_atom_site_aniso_U_33
_atom_site_aniso_U_12
_atom_site_aniso_U_13
_atom_site_aniso_U_23
Ti1 Ti4+ 0.00547(4) 0.00451(4) 0.00487(4) -.00042(4) -.00016(4) 0.00062(4)
Ti2 Ti4+ 0.00474(4) 0.00427(4) 0.00619(4) 0.00063(4) -.00032(3) -.00022(4)
P1 P5+ 0.00409(6) 0.00520(8) 0.00727(8) -.00092(6) -.00028(6) 0.00048(7)
P2 P5+ 0.00700(7) 0.00468(8) 0.00481(7) 0.00033(6) -.00017(7) -.00075(6)
Na1 Na1+ 0.0440(8) 0.0232(5) 0.0199(4) -.0061(5) -.0036(4) -.0008(3)
K2 K1+ 0.0135(1) 0.0259(2) 0.0256(2) 0.0013(1) -.0069(1) -.0020(2)
O1 O2- 0.0098(3) 0.0104(3) 0.0118(3) 0.0038(2) 0.0030(2) 0.0053(2)
O2 O2- 0.0080(2) 0.0081(2) 0.0139(3) -.0022(2) -.0010(2) 0.0042(2)
O3 O2- 0.0052(2) 0.0101(2) 0.0098(3) -.0005(2) -.0011(2) 0.0011(2)
O4 O2- 0.0046(2) 0.0120(3) 0.0105(3) 0.0000(2) 0.0013(2) -.0011(2)
O5 O2- 0.0115(3) 0.0114(3) 0.0051(2) 0.0033(2) 0.0014(2) -.0002(2)
O6 O2- 0.0112(2) 0.0114(3) 0.0056(2) 0.0022(2) -.0009(2) 0.0002(2)
O7 O2- 0.0114(3) 0.0076(2) 0.0100(3) 0.0032(2) -.0024(2) -.0035(2)
O8 O2- 0.0109(3) 0.0071(2) 0.0109(3) 0.0031(2) 0.0030(2) 0.0034(2)
O9 O2- 0.0085(2) 0.0074(2) 0.0090(2) 0.0019(2) 0.0001(2) -.0020(2)
O10 O2- 0.0096(2) 0.0079(2) 0.0102(3) 0.0028(2) -.0001(2) 0.0014(2)
#End of TTdata_71929-ICSD