
#(C) 2019 by FIZ Karlsruhe - Leibniz Institute for Information Infrastructure.  All rights reserved.
data_71930-ICSD
_database_code_ICSD 71930
_audit_creation_date 1993-08-22
_chemical_name_systematic
'Sodium tungsten oxide dideuteriohydrate (0.2/1/3.1/0.2)'
_chemical_formula_structural 'Na0.17 W O3.085 (D2 O)0.23'
_chemical_formula_sum 'D0.46 Na0.17 O3.315 W1'
_chemical_name_structure_type Na2xWO3+x(H2O)y
_exptl_crystal_density_diffrn 6.65
_publ_section_title

;
Rietveld analysis of NaxWO3+x/2.yH2O, which has the hexagonal tungsten bronze
structure
;
loop_
_citation_id
_citation_journal_full
_citation_year
_citation_journal_volume
_citation_page_first
_citation_page_last
_citation_journal_id_ASTM
primary 'Chemistry of Materials' 1992 4 307 312 CMATEX
loop_
_publ_author_name
'Reis, K.P.'
'Prince, E.'
'Stanley Whittingham, M.'
_cell_length_a 7.329(2)
_cell_length_b 7.329(2)
_cell_length_c 3.891(1)
_cell_angle_alpha 90.
_cell_angle_beta 90.
_cell_angle_gamma 120.
_cell_volume 181.
_cell_formula_units_Z 3
_symmetry_space_group_name_H-M 'P 6/m m m'
_symmetry_Int_Tables_number 191
_refine_ls_R_factor_all 0.051
loop_
_symmetry_equiv_pos_site_id
_symmetry_equiv_pos_as_xyz
1 '-x, -x+y, -z'
2 'x-y, -y, -z'
3 'y, x, -z'
4 '-x+y, -x, -z'
5 '-y, x-y, -z'
6 'x, y, -z'
7 'x, x-y, -z'
8 '-x+y, y, -z'
9 '-y, -x, -z'
10 'x-y, x, -z'
11 'y, -x+y, -z'
12 '-x, -y, -z'
13 'x, x-y, z'
14 '-x+y, y, z'
15 '-y, -x, z'
16 'x-y, x, z'
17 'y, -x+y, z'
18 '-x, -y, z'
19 '-x, -x+y, z'
20 'x-y, -y, z'
21 'y, x, z'
22 '-x+y, -x, z'
23 '-y, x-y, z'
24 'x, y, z'
loop_
_atom_type_symbol
_atom_type_oxidation_number
W6+ 6
O2- -2
D1+ 1
Na1+ 1
loop_
_atom_site_label
_atom_site_type_symbol
_atom_site_symmetry_multiplicity
_atom_site_Wyckoff_symbol
_atom_site_fract_x
_atom_site_fract_y
_atom_site_fract_z
_atom_site_B_iso_or_equiv
_atom_site_occupancy
_atom_site_attached_hydrogens
W1 W6+ 3 f 0.5 0 0 3.8(4) 1. 0
O1 O2- 3 g 0.5 0 0.5 1.5(1) 1. 0
O2 O2- 6 l 0.2114(4) 0.4228(8) 0 1.2(1) 1. 0
O3 O2- 2 e 0 0 0.412(4) 2.6(8) 0.4725 0
D1 D1+ 12 o 0.071(3) 0.142(6) 0.312(7) 1.(8) 0.115 0
Na1 Na1+ 1 a 0 0 0 1.(8) 0.51(2) 0
#End of TTdata_71930-ICSD