
#(C) 2019 by FIZ Karlsruhe - Leibniz Institute for Information Infrastructure.  All rights reserved.
data_72116-ICSD
_database_code_ICSD 72116
_audit_creation_date 1993-08-22
_audit_update_record 2012-08-01
_chemical_name_systematic 'Octasodium cyclo-octaphosphate hexahydrate'
_chemical_formula_structural 'Na8 (P8 O24) (H2 O)6'
_chemical_formula_sum 'H12 Na8 O30 P8'
_exptl_crystal_density_diffrn 2.16
_publ_section_title
'Crystal structure of sodium cyclooctaphosphate hexahydrate, Na8P8O24 . 6H2O'
loop_
_citation_id
_citation_journal_full
_citation_year
_citation_journal_volume
_citation_page_first
_citation_page_last
_citation_journal_id_ASTM
primary 'Journal of Solid State Chemistry' 1992 98 213 218 JSSCBI
loop_
_publ_author_name
'Schuelke, U.'
'Averbuch-Pouchot, M.T.'
'Durif, A.'
_cell_length_a 6.622(2)
_cell_length_b 10.031(4)
_cell_length_c 11.250(4)
_cell_angle_alpha 104.06(5)
_cell_angle_beta 101.21(5)
_cell_angle_gamma 90.88(5)
_cell_volume 709.53
_cell_formula_units_Z 1
_symmetry_space_group_name_H-M 'P -1'
_symmetry_Int_Tables_number 2
_refine_ls_R_factor_all 0.036
loop_
_symmetry_equiv_pos_site_id
_symmetry_equiv_pos_as_xyz
1 '-x, -y, -z'
2 'x, y, z'
loop_
_atom_type_symbol
_atom_type_oxidation_number
P5+ 5
Na1+ 1
O2- -2
H1+ 1
loop_
_atom_site_label
_atom_site_type_symbol
_atom_site_symmetry_multiplicity
_atom_site_Wyckoff_symbol
_atom_site_fract_x
_atom_site_fract_y
_atom_site_fract_z
_atom_site_B_iso_or_equiv
_atom_site_occupancy
_atom_site_attached_hydrogens
P1 P5+ 2 i 0.5972(2) 0.2260(1) 0.8110(1) . 1. 0
P2 P5+ 2 i 0.6811(2) 0.3570(1) 0.0881(1) . 1. 0
P3 P5+ 2 i 0.9672(2) 0.2443(1) 0.2610(1) . 1. 0
P4 P5+ 2 i 0.7811(2) -.0188(1) 0.6984(1) . 1. 0
Na1 Na1+ 2 i 0.2514(4) -.0269(2) 0.5870(2) . 1. 0
Na2 Na1+ 2 i 0.0804(3) 0.2855(2) 0.7643(2) . 1. 0
Na3 Na1+ 2 i 0.4936(3) 0.3408(2) 0.3648(2) . 1. 0
Na4 Na1+ 2 i 0.1851(3) 0.4392(2) 0.1073(2) . 1. 0
O1 O2- 2 i 0.2672(6) 0.6684(4) 0.2128(3) . 1. 0
O2 O2- 2 i 0.4382(5) 0.7324(4) 0.0478(3) . 1. 0
O3 O2- 2 i 0.2760(5) 0.9088(4) 0.1836(3) . 1. 0
O4 O2- 2 i 0.6101(6) 0.8144(4) 0.2704(3) . 1. 0
O5 O2- 2 i 0.8224(6) 0.2379(4) 0.1274(3) . 1. 0
O6 O2- 2 i 0.8170(6) 0.4718(4) 0.0769(3) . 1. 0
O7 O2- 2 i 0.5238(6) 0.3848(4) 0.1666(3) . 1. 0
O8 O2- 2 i 0.1261(6) 0.3614(4) 0.2918(3) . 1. 0
O9 O2- 2 i 0.8409(5) 0.2343(4) 0.3552(3) . 1. 0
O10 O2- 2 i 0.0684(6) 0.1013(4) 0.2168(3) . 1. 0
O11 O2- 2 i 0.0933(6) 0.9485(4) 0.3683(3) . 1. 0
O12 O2- 2 i 0.4045(6) 0.1065(4) 0.3743(4) . 1. 0
O13 O2- 2 i 0.8598(6) 0.7896(5) 0.0390(4) . 1. 0
O14 O2- 2 i 0.9666(7) 0.6119(4) 0.4026(4) . 1. 0
O15 O2- 2 i 0.5369(8) 0.5917(5) 0.4235(4) . 1. 0
H1 H1+ 2 i 0.06(1) 0.144(8) 0.960(7) 2.(2) 1. 0
H2 H1+ 2 i 0.25(2) 0.18(1) -.017(9) 5.(3) 1. 0
H3 H1+ 2 i 0.02(2) 0.65(1) 0.490(9) 5.(3) 1. 0
H4 H1+ 2 i 0.03(1) 0.554(7) 0.380(6) 1.(2) 1. 0
H5 H1+ 2 i 0.45(1) 0.612(9) 0.364(8) 3.(2) 1. 0
H6 H1+ 2 i 0.62(2) 0.61(1) 0.40(1) 6.(3) 1. 0
loop_
_atom_site_aniso_label
_atom_site_aniso_type_symbol
_atom_site_aniso_beta_11
_atom_site_aniso_beta_22
_atom_site_aniso_beta_33
_atom_site_aniso_beta_12
_atom_site_aniso_beta_13
_atom_site_aniso_beta_23
P1 P5+ 0.0047(2) 0.0025(1) 0.00196(8) 0.0011(1) 0.0008(1) 0.00005(6)
P2 P5+ 0.0044(2) 0.0026(1) 0.00192(8) 0.0009(1) 0.0006(1) 0.00050(6)
P3 P5+ 0.0046(2) 0.0023(1) 0.00239(8) 0.0007(1) 0.0009(1) 0.00060(6)
P4 P5+ 0.0043(2) 0.0024(1) 0.00254(8) 0.0007(1) 0.0007(1) 0.00070(6)
Na1 Na1+ 0.0085(5) 0.0049(2) 0.0038(2) 0.0004(3) 0.0005(3) 0.0008(2)
Na2 Na1+ 0.0085(4) 0.0063(2) 0.0046(2) 0.0021(3) 0.0028(2) 0.0019(2)
Na3 Na1+ 0.0084(4) 0.0044(2) 0.0036(2) 0.0002(3) 0.0014(2) 0.0008(2)
Na4 Na1+ 0.0069(4) 0.0040(2) 0.0042(2) 0.0000(3) 0.0014(2) 0.0013(2)
O1 O2- 0.0094(8) 0.0036(3) 0.0039(3) 0.0007(5) 0.0030(4) 0.0014(3)
O2 O2- 0.0061(7) 0.0037(3) 0.0018(2) -.0005(4) 0.0007(3) -.0002(3)
O3 O2- 0.0066(7) 0.0034(3) 0.0024(2) 0.0023(4) 0.0008(4) 0.0009(2)
O4 O2- 0.0071(7) 0.0045(4) 0.0025(3) 0.0012(5) -.0003(4) 0.0004(3)
O5 O2- 0.0083(7) 0.0029(3) 0.0026(2) 0.0022(4) 0.0002(4) 0.0005(3)
O6 O2- 0.0086(8) 0.0031(3) 0.0039(3) -.0004(4) 0.0004(4) 0.0014(3)
O7 O2- 0.0071(7) 0.0057(4) 0.0030(3) 0.0030(4) 0.0025(3) 0.0013(3)
O8 O2- 0.0072(7) 0.0042(3) 0.0036(3) -.0004(4) 0.0015(4) 0.0010(3)
O9 O2- 0.0073(7) 0.0037(3) 0.0032(2) 0.0014(4) 0.0024(3) 0.0011(3)
O10 O2- 0.0087(7) 0.0031(3) 0.0032(3) 0.0027(4) 0.0009(4) 0.0011(3)
O11 O2- 0.0092(7) 0.0045(3) 0.0045(3) 0.0012(5) 0.0036(4) 0.0023(3)
O12 O2- 0.0076(8) 0.0035(4) 0.0049(3) 0.0004(5) -.0003(4) -.0004(3)
O13 O2- 0.0097(8) 0.0067(4) 0.0052(3) -.0010(5) 0.0016(4) 0.0011(3)
O14 O2- 0.017(1) 0.0051(4) 0.0041(3) 0.0025(5) 0.0019(5) 0.0008(3)
O15 O2- 0.026(1) 0.0055(4) 0.0033(3) -.0015(6) 0.0025(5) 0.0014(3)
#End of TTdata_72116-ICSD