
#(C) 2019 by FIZ Karlsruhe - Leibniz Institute for Information Infrastructure.  All rights reserved.
data_72289-ICSD
_database_code_ICSD 72289
_audit_creation_date 1994-01-19
_chemical_name_systematic 'Disodium aluminium nickel fluoride'
_chemical_formula_structural 'Na2 Al Ni F7'
_chemical_formula_sum 'Al1 F7 Na2 Ni1'
_chemical_name_structure_type Ca2Sb2O7
_exptl_crystal_density_diffrn 3.38
_publ_section_title

;
Die Kristallstruktur von Na2NiAlF7 - ein Beitrag zum Problem der wahren
Raumgruppe orthorhombischer Weberite
;
loop_
_citation_id
_citation_journal_full
_citation_year
_citation_journal_volume
_citation_page_first
_citation_page_last
_citation_journal_id_ASTM
primary 'Zeitschrift fuer Anorganische und Allgemeine Chemie (1950) (DE)' 1992
615 11 15 ZAACAB
loop_
_publ_author_name
'Schmidt, R.E.'
'Massa, W.'
'Babel, D.'
_cell_length_a 7.074(2)
_cell_length_b 10.038(2)
_cell_length_c 7.315(1)
_cell_angle_alpha 90.
_cell_angle_beta 90.
_cell_angle_gamma 90.
_cell_volume 519.43
_cell_formula_units_Z 4
_symmetry_space_group_name_H-M 'I m m a'
_symmetry_Int_Tables_number 74
_refine_ls_R_factor_all 0.02
loop_
_symmetry_equiv_pos_site_id
_symmetry_equiv_pos_as_xyz
1 '-x, y+1/2, -z'
2 '-x, -y+1/2, z'
3 '-x, y, z'
4 '-x, -y, -z'
5 'x, -y+1/2, z'
6 'x, y+1/2, -z'
7 'x, -y, -z'
8 'x, y, z'
9 '-x+1/2, y, -z+1/2'
10 '-x+1/2, -y, z+1/2'
11 '-x+1/2, y+1/2, z+1/2'
12 '-x+1/2, -y+1/2, -z+1/2'
13 'x+1/2, -y, z+1/2'
14 'x+1/2, y, -z+1/2'
15 'x+1/2, -y+1/2, -z+1/2'
16 'x+1/2, y+1/2, z+1/2'
loop_
_atom_type_symbol
_atom_type_oxidation_number
Na1+ 1
Ni2+ 2
Al3+ 3
F1- -1
loop_
_atom_site_label
_atom_site_type_symbol
_atom_site_symmetry_multiplicity
_atom_site_Wyckoff_symbol
_atom_site_fract_x
_atom_site_fract_y
_atom_site_fract_z
_atom_site_B_iso_or_equiv
_atom_site_occupancy
_atom_site_attached_hydrogens
Na1 Na1+ 4 d 0.25 0.25 0.75 . 1. 0
Na2 Na1+ 4 a 0 0.5 0 . 1. 0
Ni1 Ni2+ 4 c 0.25 0.25 0.25 . 1. 0
Al1 Al3+ 4 b 0 0.5 0.5 . 1. 0
F1 F1- 4 e 0 0.25 0.13130(14) . 1. 0
F2 F1- 8 h 0 0.41767(8) 0.72095(9) . 1. 0
F3 F1- 16 j 0.18516(7) 0.38725(5) 0.43281(7) . 1. 0
loop_
_atom_site_aniso_label
_atom_site_aniso_type_symbol
_atom_site_aniso_U_11
_atom_site_aniso_U_22
_atom_site_aniso_U_33
_atom_site_aniso_U_12
_atom_site_aniso_U_13
_atom_site_aniso_U_23
Na1 Na1+ 0.0252(5) 0.0217(4) 0.0641(9) 0 -.0058(4) 0
Na2 Na1+ 0.0261(4) 0.0389(5) 0.0152(3) 0 0 -.0097(3)
Ni1 Ni2+ 0.0076(1) 0.0064(1) 0.0081(1) 0 0.00070(4) 0
Al1 Al3+ 0.0082(2) 0.0063(2) 0.0076(1) 0 0 -.0023(1)
F1 F1- 0.0090(3) 0.0185(4) 0.0166(4) 0 0 0
F2 F1- 0.0221(3) 0.0181(3) 0.0099(2) 0 0 0.0004(2)
F3 F1- 0.0141(2) 0.0147(2) 0.0197(2) 0.0040(2) 0.0019(2) -.0070(2)
#End of TTdata_72289-ICSD