
#(C) 2019 by FIZ Karlsruhe - Leibniz Institute for Information Infrastructure.  All rights reserved.
data_72392-ICSD
_database_code_ICSD 72392
_audit_creation_date 1994-01-19
_audit_update_record 2012-08-01
_chemical_name_systematic 'Disodium cobalt iron(III) heptafluoride'
_chemical_formula_structural 'Na2 Co Fe F7'
_chemical_formula_sum 'Co1 F7 Fe1 Na2'
_chemical_name_structure_type Na2CoFeF7
_exptl_crystal_density_diffrn 3.48
_publ_section_title

;
Die Kristallstrukturen von Na2CoFeF7 und einer zweiten Modifikation von
Na2CuFeF7: eine weitere Weberit-Variante
;
loop_
_citation_id
_citation_journal_full
_citation_year
_citation_journal_volume
_citation_page_first
_citation_page_last
_citation_journal_id_ASTM
primary 'Zeitschrift fuer Naturforschung, B: A Journal of Chemical Sciences'
1992 47 685 692 ZNBSEN
loop_
_publ_author_name
'Welsch, M.'
'Babel, D.'
_cell_length_a 12.622(10)
_cell_length_b 7.360(4)
_cell_length_c 24.516(20)
_cell_angle_alpha 90.
_cell_angle_beta 99.71(5)
_cell_angle_gamma 90.
_cell_volume 2244.86
_cell_formula_units_Z 16
_symmetry_space_group_name_H-M 'C 1 2/c 1'
_symmetry_Int_Tables_number 15
_refine_ls_R_factor_all 0.065
loop_
_symmetry_equiv_pos_site_id
_symmetry_equiv_pos_as_xyz
1 'x, -y, z+1/2'
2 '-x, -y, -z'
3 '-x, y, -z+1/2'
4 'x, y, z'
5 'x+1/2, -y+1/2, z+1/2'
6 '-x+1/2, -y+1/2, -z'
7 '-x+1/2, y+1/2, -z+1/2'
8 'x+1/2, y+1/2, z'
loop_
_atom_type_symbol
_atom_type_oxidation_number
Na1+ 1
Co2+ 2
Fe3+ 3
F1- -1
loop_
_atom_site_label
_atom_site_type_symbol
_atom_site_symmetry_multiplicity
_atom_site_Wyckoff_symbol
_atom_site_fract_x
_atom_site_fract_y
_atom_site_fract_z
_atom_site_B_iso_or_equiv
_atom_site_occupancy
_atom_site_attached_hydrogens
Na1 Na1+ 4 a 0 0 0 . 1. 0
Na2 Na1+ 4 b 0 0.5 0 . 1. 0
Na3 Na1+ 4 d 0.25 0.25 0.5 . 1. 0
Na4 Na1+ 4 e 0 0.7793(18) 0.25 . 1. 0
Na5 Na1+ 8 f 0.2521(5) 0.0410(15) 0.2519(3) . 1. 0
Na6 Na1+ 8 f 0.3763(15) 0.500(2) 0.1230(6) . 1. 0
Co1 Co2+ 8 f 0.3780(4) 0.0099(6) 0.1280(2) . 1. 0
Co2 Co2+ 8 f 0.1273(6) 0.2609(3) 0.1270(3) . 1. 0
Fe1 Fe3+ 4 c 0.25 0.25 0 . 1. 0
Fe2 Fe3+ 4 e 0 0.2475(5) 0.25 . 1. 0
Fe3 Fe3+ 8 f 0.1262(6) 0.7629(4) 0.1246(3) . 1. 0
F1 F1- 8 f 0.3369(11) 0.0818(17) 0.0461(5) . 1. 0
F2 F1- 8 f 0.4210(12) -.0599(19) 0.2073(5) . 1. 0
F3 F1- 8 f 0.4851(12) 0.2088(14) 0.1408(6) . 1. 0
F4 F1- 8 f 0.2677(11) 0.8077(15) 0.1107(6) . 1. 0
F5 F1- 8 f 0.1451(14) 0.2731(14) 0.0470(7) . 1. 0
F6 F1- 8 f 0.1148(12) 0.2535(13) 0.2079(6) . 1. 0
F7 F1- 8 f 0.0739(7) 0.0014(14) 0.1095(4) . 1. 0
F8 F1- 8 f 0.1798(7) 0.5182(15) 0.1398(4) . 1. 0
F9 F1- 8 f 0.2778(9) 0.1834(15) 0.1535(5) . 1. 0
F10 F1- 8 f -.0244(9) 0.3319(15) 0.1000(4) . 1. 0
F11 F1- 8 f 0.3326(11) 0.4581(17) 0.0319(5) . 1. 0
F12 F1- 8 f 0.0799(11) 0.0606(19) 0.2929(5) . 1. 0
F13 F1- 8 f 0.1686(13) 0.8065(15) 0.2041(6) . 1. 0
F14 F1- 8 f 0.0898(13) 0.7234(14) 0.0458(6) . 1. 0
loop_
_atom_site_aniso_label
_atom_site_aniso_type_symbol
_atom_site_aniso_U_11
_atom_site_aniso_U_22
_atom_site_aniso_U_33
_atom_site_aniso_U_12
_atom_site_aniso_U_13
_atom_site_aniso_U_23
Na1 Na1+ 0.04(1) 0.042(9) 0.042(9) 0.039(5) 0.012(9) 0.020(7)
Na2 Na1+ 0.03(1) 0.019(7) 0.04(1) 0.000(7) -0.009(8) -0.016(8)
Na3 Na1+ 0.04(1) 0.05(1) 0.04(1) -0.012(8) -0.006(9) -0.021(8)
Na4 Na1+ 0.05(1) 0.03(1) 0.06(1) 0 0.05(1) 0
Na5 Na1+ 0.016(7) 0.033(6) 0.042(8) -0.012(5) 0.003(6) -0.014(5)
Na6 Na1+ 0.044(4) 0.071(6) 0.020(4) 0.013(5) -0.005(3) -0.020(5)
Co1 Co2+ 0.007(1) 0.010(1) 0.011(1) 0.000(1) 0.004(1) -0.002(1)
Co2 Co2+ 0.009(1) 0.009(1) 0.010(1) 0.000(1) 0.0034(8) -0.002(1)
Fe1 Fe3+ 0.007(4) 0.023(4) 0.009(3) 0.002(2) 0.007(3) 0.000(2)
Fe2 Fe3+ 0.013(4) 0.006(4) 0.008(3) 0 0.000(3) 0
Fe3 Fe3+ 0.010(1) 0.009(1) 0.014(1) -0.001(2) 0.0023(7) -0.003(2)
F1 F1- 0.020(7) 0.023(8) 0.014(7) -0.009(6) -0.010(5) -0.011(6)
F2 F1- 0.027(8) 0.032(9) 0.025(7) -0.010(7) 0.022(6) -0.005(6)
F3 F1- 0.017(8) 0.026(7) 0.029(8) -0.012(7) 0.017(7) -0.005(7)
F4 F1- 0.010(7) 0.018(6) 0.036(9) -0.009(7) 0.003(7) -0.004(7)
F5 F1- 0.024(8) 0.032(9) 0.017(8) -0.005(6) -0.003(6) -0.001(6)
F6 F1- 0.015(7) 0.05(1) 0.024(7) 0.007(5) 0.014(6) 0.000(5)
F7 F1- 0.026(6) 0.011(6) 0.028(6) -0.002(6) 0.001(5) 0.005(6)
F8 F1- 0.023(6) 0.015(6) 0.027(6) -0.003(6) 0.002(5) 0.001(6)
F9 F1- 0.005(6) 0.029(7) 0.034(8) 0.002(6) 0.010(6) -0.005(7)
F10 F1- 0.021(7) 0.030(7) 0.017(7) -0.019(6) 0.001(6) 0.004(6)
F11 F1- 0.021(7) 0.012(7) 0.005(5) -0.001(6) -0.006(5) -0.001(5)
F12 F1- 0.023(7) 0.04(1) 0.019(7) -0.003(7) 0.020(5) -0.004(6)
F13 F1- 0.034(9) 0.011(6) 0.022(8) 0.008(7) -0.009(7) -0.002(7)
F14 F1- 0.030(8) 0.025(8) 0.005(7) -0.001(6) -0.005(6) 0.010(6)
#End of TTdata_72392-ICSD