
#(C) 2019 by FIZ Karlsruhe - Leibniz Institute for Information Infrastructure.  All rights reserved.
data_72466-ICSD
_database_code_ICSD 72466
_audit_creation_date 1994-01-19
_chemical_name_systematic 'Sodium disilicon nitride'
_chemical_formula_structural 'Na Si2 N3'
_chemical_formula_sum 'N3 Na1 Si2'
_chemical_name_structure_type Na2SiO3
_exptl_crystal_density_diffrn 3.17
_publ_section_title
'Preparation and crystal structure of a sodium silicon nitride, NaSi2N3'
loop_
_citation_id
_citation_journal_full
_citation_year
_citation_journal_volume
_citation_page_first
_citation_page_last
_citation_journal_id_ASTM
primary 'European Journal of Solid State and Inorganic Chemistry' 1993 30 45 53
EJSCE5
loop_
_publ_author_name
'Jacobs, H.'
'Mengis, H.'
_cell_length_a 9.468(1)
_cell_length_b 5.502(1)
_cell_length_c 4.878(5)
_cell_angle_alpha 90.
_cell_angle_beta 90.
_cell_angle_gamma 90.
_cell_volume 254.11
_cell_formula_units_Z 4
_symmetry_space_group_name_H-M 'C m c 21'
_symmetry_Int_Tables_number 36
_refine_ls_R_factor_all 0.032
loop_
_symmetry_equiv_pos_site_id
_symmetry_equiv_pos_as_xyz
1 'x, -y, z+1/2'
2 '-x, -y, z+1/2'
3 '-x, y, z'
4 'x, y, z'
5 'x+1/2, -y+1/2, z+1/2'
6 '-x+1/2, -y+1/2, z+1/2'
7 '-x+1/2, y+1/2, z'
8 'x+1/2, y+1/2, z'
loop_
_atom_type_symbol
_atom_type_oxidation_number
Na1+ 1
Si4+ 4
N3- -3
loop_
_atom_site_label
_atom_site_type_symbol
_atom_site_symmetry_multiplicity
_atom_site_Wyckoff_symbol
_atom_site_fract_x
_atom_site_fract_y
_atom_site_fract_z
_atom_site_B_iso_or_equiv
_atom_site_occupancy
_atom_site_attached_hydrogens
Na1 Na1+ 4 a 0 0.343(3) 0.975(3) 2.7(3) 1. 0
Si1 Si4+ 8 b 0.1710(7) 0.848(1) 0 1.73(9) 1. 0
N1 N3- 8 b 0.225(1) 0.852(4) 0.373(2) 2.9(3) 1. 0
N2 N3- 4 a 0 0.195(3) 0.476(6) 2.4(5) 1. 0
#End of TTdata_72466-ICSD