
#(C) 2019 by FIZ Karlsruhe - Leibniz Institute for Information Infrastructure.  All rights reserved.
data_72748-ICSD
_database_code_ICSD 72748
_audit_creation_date 1994-01-19
_audit_update_record 2012-08-01
_chemical_name_systematic 'Sodium oxovanadium arsenate'
_chemical_formula_structural 'Na (V O) (As O4)'
_chemical_formula_sum 'As1 Na1 O5 V1'
_chemical_name_structure_type CaTi(SiO4)O
_exptl_crystal_density_diffrn 4.01
_publ_section_title 'Preparation and crystal structure of NaVOAsO4'
loop_
_citation_id
_citation_journal_full
_citation_year
_citation_journal_volume
_citation_page_first
_citation_page_last
_citation_journal_id_ASTM
primary 'European Journal of Solid State and Inorganic Chemistry' 1992 29 57 63
EJSCE5
loop_
_publ_author_name
'Haddad, A.'
'Jouini, T.'
'Piffard, Y.'
_cell_length_a 6.650(1)
_cell_length_b 8.714(1)
_cell_length_c 7.221(1)
_cell_angle_alpha 90.
_cell_angle_beta 115.17(1)
_cell_angle_gamma 90.
_cell_volume 378.71
_cell_formula_units_Z 4
_symmetry_space_group_name_H-M 'P 1 21/c 1'
_symmetry_Int_Tables_number 14
_refine_ls_R_factor_all 0.032
loop_
_symmetry_equiv_pos_site_id
_symmetry_equiv_pos_as_xyz
1 'x, -y+1/2, z+1/2'
2 '-x, -y, -z'
3 '-x, y+1/2, -z+1/2'
4 'x, y, z'
loop_
_atom_type_symbol
_atom_type_oxidation_number
As5+ 5
V4+ 4
Na1+ 1
O2- -2
loop_
_atom_site_label
_atom_site_type_symbol
_atom_site_symmetry_multiplicity
_atom_site_Wyckoff_symbol
_atom_site_fract_x
_atom_site_fract_y
_atom_site_fract_z
_atom_site_B_iso_or_equiv
_atom_site_occupancy
_atom_site_attached_hydrogens
As1 As5+ 4 e 0.2486(3) 0.0628(1) 0.2471(2) . 1. 0
V1 V4+ 4 e 0.7444(2) 0.2378(2) 0.0291(2) . 1. 0
Na1 Na1+ 4 e 0.244(2) 0.0845(4) 0.7245(9) . 1. 0
O1 O2- 4 e 0.853(1) 0.0464(7) 0.6187(9) . 1. 0
O2 O2- 4 e 0.050(1) 0.1749(7) 0.0771(8) . 1. 0
O3 O2- 4 e 0.751(1) 0.1829(6) 0.2473(9) . 1. 0
O4 O2- 4 e 0.633(1) 0.0438(6) 0.8744(9) . 1. 0
O5 O2- 4 e 0.433(1) 0.1870(7) 0.4081(9) . 1. 0
loop_
_atom_site_aniso_label
_atom_site_aniso_type_symbol
_atom_site_aniso_beta_11
_atom_site_aniso_beta_22
_atom_site_aniso_beta_33
_atom_site_aniso_beta_12
_atom_site_aniso_beta_13
_atom_site_aniso_beta_23
As1 As5+ 0.0019(2) 0.0015(1) 0.0025(1) 0.0001(2) 0.0006(1) 0.0001(1)
V1 V4+ 0.0012(3) 0.0008(2) 0.0011(2) 0.0001(2) 0.0002(2) 0.0007(2)
Na1 Na1+ 0.0078(9) 0.0020(4) 0.017(2) 0.0003(7) 0.004(1) 0.0001(6)
O1 O2- 0.004(2) 0.0029(8) 0.006(1) -.0014(9) 0.003(1) -.0013(8)
O2 O2- 0.004(2) 0.0026(7) 0.004(1) -.002(9) 0.001(1) 0.0004(7)
O3 O2- 0.003(1) 0.0026(6) 0.003(1) 0.000(1) -.0007(8) -.0004(8)
O4 O2- 0.006(2) 0.0014(7) 0.008(1) -.0026(9) 0.004(1) -.0028(8)
O5 O2- 0.001(2) 0.0014(7) 0.009(1) -.0002(8) 0.0008(1) -.0008(7)
#End of TTdata_72748-ICSD