
#(C) 2019 by FIZ Karlsruhe - Leibniz Institute for Information Infrastructure.  All rights reserved.
data_72839-ICSD
_database_code_ICSD 72839
_audit_creation_date 1994-01-19
_audit_update_record 2005-10-01
_chemical_name_systematic 'Sodium tribarium bismuthate'
_chemical_formula_structural 'Na Ba3 (Bi O6)'
_chemical_formula_sum 'Ba3 Bi1 Na1 O6'
_chemical_name_structure_type K4CdCl6
_exptl_crystal_density_diffrn 6.52
_publ_section_title

;
Six new Bi(V) materials: Li Sr3 Bi O6, Na Sr3 Bi O6, Na Ba3 Bi O6, Li6 K Bi
O6, Li6 Rb Bi O6 and Li2 Ba5 Bi2 O11
;
loop_
_citation_id
_citation_journal_full
_citation_year
_citation_journal_volume
_citation_page_first
_citation_page_last
_citation_journal_id_ASTM
primary 'Journal of Solid State Chemistry' 1992 96 332 343 JSSCBI
loop_
_publ_author_name
'Carlson, V.A.'
'Stacy, A.M.'
_cell_length_a 7.226(1)
_cell_length_b 7.226(1)
_cell_length_c 7.226(1)
_cell_angle_alpha 91.79(3)
_cell_angle_beta 91.79(3)
_cell_angle_gamma 91.79(3)
_cell_volume 376.74
_cell_formula_units_Z 2
_symmetry_space_group_name_H-M 'R -3 c R'
_symmetry_Int_Tables_number 167
_refine_ls_R_factor_all 0.027
loop_
_symmetry_equiv_pos_site_id
_symmetry_equiv_pos_as_xyz
1 '-x+1/2, -z+1/2, -y+1/2'
2 '-z+1/2, -y+1/2, -x+1/2'
3 '-y+1/2, -x+1/2, -z+1/2'
4 'x+1/2, z+1/2, y+1/2'
5 'z+1/2, y+1/2, x+1/2'
6 'y+1/2, x+1/2, z+1/2'
7 '-z, -x, -y'
8 '-y, -z, -x'
9 '-x, -y, -z'
10 'z, x, y'
11 'y, z, x'
12 'x, y, z'
loop_
_atom_type_symbol
_atom_type_oxidation_number
Bi5+ 5
Ba2+ 2
Na1+ 1
O2- -2
loop_
_atom_site_label
_atom_site_type_symbol
_atom_site_symmetry_multiplicity
_atom_site_Wyckoff_symbol
_atom_site_fract_x
_atom_site_fract_y
_atom_site_fract_z
_atom_site_B_iso_or_equiv
_atom_site_occupancy
_atom_site_attached_hydrogens
Bi1 Bi5+ 2 b 0 0 0 0.449(3) 1. 0
Ba1 Ba2+ 6 e 0.39831(7) 0.10169(7) 0.75 0.772(9) 1. 0
Na1 Na1+ 2 a 0.25 0.25 0.25 0.90(4) 1. 0
O1 O2- 12 f 0.0816(8) 0.2769(9) 0.9471(9) 1.0(1) 1. 0
#End of TTdata_72839-ICSD