
#(C) 2019 by FIZ Karlsruhe - Leibniz Institute for Information Infrastructure.  All rights reserved.
data_72913-ICSD
_database_code_ICSD 72913
_audit_creation_date 1994-06-30
_chemical_name_systematic 'Sodium tetrahydroxoborate'
_chemical_formula_structural 'Na (B (O H)4)'
_chemical_formula_sum 'H4 B1 Na1 O4'
_exptl_crystal_density_diffrn 1.9
_publ_section_title 'Structure of sodium tetrahydroxyborate'
loop_
_citation_id
_citation_journal_full
_citation_year
_citation_journal_volume
_citation_page_first
_citation_page_last
_citation_journal_id_ASTM
primary 'Acta Crystallographica, Section C: Crystal Structure Communications'
1993 49 1039 1041 ACSCEE
loop_
_publ_author_name
'Csetenyi, L.J.'
'Glasser, F.P.'
'Howie, R.A.'
_cell_length_a 5.886(3)
_cell_length_b 10.566(6)
_cell_length_c 6.146(3)
_cell_angle_alpha 90.
_cell_angle_beta 111.60(4)
_cell_angle_gamma 90.
_cell_volume 355.39
_cell_formula_units_Z 4
_symmetry_space_group_name_H-M 'P 1 21/a 1'
_symmetry_Int_Tables_number 14
_refine_ls_R_factor_all 0.03
loop_
_symmetry_equiv_pos_site_id
_symmetry_equiv_pos_as_xyz
1 'x+1/2, -y+1/2, z'
2 '-x, -y, -z'
3 '-x+1/2, y+1/2, -z'
4 'x, y, z'
loop_
_atom_type_symbol
_atom_type_oxidation_number
Na1+ 1
O2- -2
B3+ 3
H1+ 1
loop_
_atom_site_label
_atom_site_type_symbol
_atom_site_symmetry_multiplicity
_atom_site_Wyckoff_symbol
_atom_site_fract_x
_atom_site_fract_y
_atom_site_fract_z
_atom_site_B_iso_or_equiv
_atom_site_occupancy
_atom_site_attached_hydrogens
Na1 Na1+ 4 e 0.24896(8) 0.48030(5) 0.75745(8) . 1. 0
O1 O2- 4 e 0.18791(5) 0.54208(8) 0.32753(15) . 1. 0
O2 O2- 4 e 0.38478(15) 0.40168(8) 0.14256(15) . 1. 0
O3 O2- 4 e 0.98058(14) 0.35407(8) 0.14764(16) . 1. 0
O4 O2- 4 e 0.33257(16) 0.34264(8) 0.50498(14) . 1. 0
B1 B3+ 4 e 0.2248(2) 0.4084(1) 0.2766(2) 0.0157(3) 1. 0
H1 H1+ 4 e 0.3141(34) 0.5764(20) 0.3586(34) 0.0353(50) 1. 0
H2 H1+ 4 e 0.4215(40) 0.3236(24) 0.1467(35) 0.0407(51) 1. 0
H3 H1+ 4 e -.0598(40) 0.3722(17) 0.0118(38) 0.0389(55) 1. 0
H4 H1+ 4 e 0.3348(42) 0.2715(19) 0.4958(42) 0.0465(59) 1. 0
loop_
_atom_site_aniso_label
_atom_site_aniso_type_symbol
_atom_site_aniso_U_11
_atom_site_aniso_U_22
_atom_site_aniso_U_33
_atom_site_aniso_U_12
_atom_site_aniso_U_13
_atom_site_aniso_U_23
Na1 Na1+ 0.0175(3) 0.0281(3) 0.0197(3) 0.0003(2) 0.0073(2) -.0007(2)
O1 O2- 0.0155(4) 0.0161(4) 0.0238(4) -.0005(3) 0.0065(3) -.0031(3)
O2 O2- 0.0180(4) 0.0190(4) 0.0218(4) 0.0005(3) 0.0096(3) -.0006(3)
O3 O2- 0.0164(4) 0.0194(4) 0.0220(4) -.0040(3) 0.0052(3) -.0009(3)
O4 O2- 0.0264(4) 0.0188(4) 0.0189(4) 0.0025(3) 0.0068(3) 0.0024(3)
#End of TTdata_72913-ICSD