
#(C) 2019 by FIZ Karlsruhe - Leibniz Institute for Information Infrastructure.  All rights reserved.
data_72978-ICSD
_database_code_ICSD 72978
_audit_creation_date 1994-06-30
_chemical_name_systematic 'Disodium catena-vanadophosphate'
_chemical_formula_structural 'Na2 (V P O6)'
_chemical_formula_sum 'Na2 O6 P1 V1'
_exptl_crystal_density_diffrn 2.74
_cell_measurement_temperature 296.
_publ_section_title
'Synthesis and crystal structure of potassium and sodium vanadium phosphates'
loop_
_citation_id
_citation_journal_full
_citation_year
_citation_journal_volume
_citation_page_first
_citation_page_last
_citation_journal_id_ASTM
primary 'Chemistry of Materials' 1993 5 206 209 CMATEX
loop_
_publ_author_name
'Korthuis, V.C.'
'Hoffmann, R.D.'
'Huang, J.-F.'
'Sleight, A.W.'
_cell_length_a 6.1805(7)
_cell_length_b 12.436(1)
_cell_length_c 7.386(1)
_cell_angle_alpha 90.
_cell_angle_beta 107.00(1)
_cell_angle_gamma 90.
_cell_volume 542.89
_cell_formula_units_Z 4
_symmetry_space_group_name_H-M 'P 1 21/n 1'
_symmetry_Int_Tables_number 14
_refine_ls_R_factor_all 0.03
loop_
_symmetry_equiv_pos_site_id
_symmetry_equiv_pos_as_xyz
1 '-x+1/2, y+1/2, -z+1/2'
2 '-x, -y, -z'
3 'x+1/2, -y+1/2, z+1/2'
4 'x, y, z'
loop_
_atom_type_symbol
_atom_type_oxidation_number
V5+ 5
P5+ 5
Na1+ 1
O2- -2
loop_
_atom_site_label
_atom_site_type_symbol
_atom_site_symmetry_multiplicity
_atom_site_Wyckoff_symbol
_atom_site_fract_x
_atom_site_fract_y
_atom_site_fract_z
_atom_site_B_iso_or_equiv
_atom_site_occupancy
_atom_site_attached_hydrogens
V1 V5+ 4 e 0.28512(5) 0.21674(3) 0.878 . 1. 0
P1 P5+ 4 e 0.90775(8) 0.11170(4) 0.69579(7) . 1. 0
Na1 Na1+ 4 e 0.3213(2) 0.13985(8) 0.4245(1) . 1. 0
Na2 Na1+ 4 e 0.8054(2) 0.07118(8) 0.0713(1) . 1. 0
O1 O2- 4 e 0.9514(3) 0.1977(1) 0.8554(2) . 1. 0
O2 O2- 4 e 0.1530(3) 0.1057(1) 0.6782(2) . 1. 0
O3 O2- 4 e 0.2398(3) 0.3467(1) 0.0120(2) . 1. 0
O4 O2- 4 e 0.4428(3) 0.2732(1) 0.7609(3) . 1. 0
O5 O2- 4 e 0.8037(3) 0.0075(1) 0.7579(2) . 1. 0
O6 O2- 4 e 0.4476(3) 0.1424(1) 0.0432(2) . 1. 0
loop_
_atom_site_aniso_label
_atom_site_aniso_type_symbol
_atom_site_aniso_U_11
_atom_site_aniso_U_22
_atom_site_aniso_U_33
_atom_site_aniso_U_12
_atom_site_aniso_U_13
_atom_site_aniso_U_23
V1 V5+ 0.0065(2) 0.0085(2) 0.0096(2) -.0001(1) 0.0019(2) -.0004(1)
P1 P5+ 0.0085(2) 0.0056(2) 0.0092(2) -.0001(2) 0.0014(2) -.0001(2)
Na1 Na1+ 0.0185(5) 0.0123(5) 0.0270(5) -.0047(3) 0.0083(4) -.0009(4)
Na2 Na1+ 0.0197(5) 0.0237(5) 0.0223(5) -.0091(4) 0.0065(4) -.0012(4)
O1 O2- 0.0088(6) 0.0103(6) 0.0119(7) 0.0000(5) 0.0034(5) 0.0038(5)
O2 O2- 0.0199(6) 0.0172(8) 0.0149(7) -.0005(6) 0.0033(6) 0.0075(6)
O3 O2- 0.0114(7) 0.0093(7) 0.0130(7) -.0003(5) -.0007(5) 0.0028(5)
O4 O2- 0.0156(7) 0.0216(8) 0.0203(8) 0.0039(7) 0.0100(6) 0.0007(7)
O5 O2- 0.0204(7) 0.0084(7) 0.0155(7) 0.0039(6) 0.0028(6) -.0027(6)
O6 O2- 0.0159(8) 0.0185(8) 0.0189(8) -.0068(6) 0.0008(6) -.0047(6)
#End of TTdata_72978-ICSD