
#(C) 2019 by FIZ Karlsruhe - Leibniz Institute for Information Infrastructure.  All rights reserved.
data_72992-ICSD
_database_code_ICSD 72992
_audit_creation_date 1994-06-30
_chemical_name_systematic 'Trisodium dilanthanum tetracarbonate fluoride'
_chemical_formula_structural 'Na3 La2 (C O3)4 F'
_chemical_formula_sum 'C4 F1 La2 Na3 O12'
_exptl_crystal_density_diffrn 3.9
_publ_section_title

;
Growth, structure, NMR characterization of a new fluorocarbonate Na3La2(CO3)4F
;
loop_
_citation_id
_citation_journal_full
_citation_year
_citation_journal_volume
_citation_page_first
_citation_page_last
_citation_journal_id_ASTM
primary 'European Journal of Solid State and Inorganic Chemistry' 1993 30 609
617 EJSCE5
loop_
_publ_author_name
'Mercier, N.'
'Taulelle, F.'
'le Blanc, M.'
_cell_length_a 5.083(1)
_cell_length_b 5.083(1)
_cell_length_c 23.034(5)
_cell_angle_alpha 90.
_cell_angle_beta 90.
_cell_angle_gamma 120.
_cell_volume 515.4
_cell_formula_units_Z 2
_symmetry_space_group_name_H-M 'P 63/m m c'
_symmetry_Int_Tables_number 194
_refine_ls_R_factor_all 0.021
loop_
_symmetry_equiv_pos_site_id
_symmetry_equiv_pos_as_xyz
1 'x, x-y, -z+1/2'
2 '-x+y, y, -z+1/2'
3 '-y, -x, -z+1/2'
4 '-x+y, -x, -z+1/2'
5 '-y, x-y, -z+1/2'
6 'x, y, -z+1/2'
7 '-x, -x+y, z+1/2'
8 'x-y, -y, z+1/2'
9 'y, x, z+1/2'
10 'x-y, x, z+1/2'
11 'y, -x+y, z+1/2'
12 '-x, -y, z+1/2'
13 '-x, -x+y, -z'
14 'x-y, -y, -z'
15 'y, x, -z'
16 'x-y, x, -z'
17 'y, -x+y, -z'
18 '-x, -y, -z'
19 'x, x-y, z'
20 '-x+y, y, z'
21 '-y, -x, z'
22 '-x+y, -x, z'
23 '-y, x-y, z'
24 'x, y, z'
loop_
_atom_type_symbol
_atom_type_oxidation_number
La3+ 3
Na1+ 1
C4+ 4
F1- -1
O2- -2
loop_
_atom_site_label
_atom_site_type_symbol
_atom_site_symmetry_multiplicity
_atom_site_Wyckoff_symbol
_atom_site_fract_x
_atom_site_fract_y
_atom_site_fract_z
_atom_site_B_iso_or_equiv
_atom_site_occupancy
_atom_site_attached_hydrogens
La1 La3+ 4 f 0.3333 0.6667 0.1454(1) . 1. 0
Na1 Na1+ 2 b 0 0 0.25 . 1. 0
Na2 Na1+ 4 f 0.3333 0.6667 0.5221(2) . 1. 0
C1 C4+ 4 e 0 0 0.0632(2) . 1. 0
C2 C4+ 4 f 0.3333 0.6667 0.6768(3) . 1. 0
F1 F1- 2 c 0.3333 0.6667 0.25 . 1. 0
O1 O2- 24 l 0.096(1) 0.286(1) 0.0620(2) . 0.5 0
O2 O2- 12 k 0.1883(3) 0.3766(6) 0.6761(1) . 1. 0
loop_
_atom_site_aniso_label
_atom_site_aniso_type_symbol
_atom_site_aniso_U_11
_atom_site_aniso_U_22
_atom_site_aniso_U_33
_atom_site_aniso_U_12
_atom_site_aniso_U_13
_atom_site_aniso_U_23
La1 La3+ 0.0063(1) 0.0063(1) 0.0063(1) 0.00315(5) 0 0
Na1 Na1+ 0.016(1) 0.016(1) 0.009(1) 0.0080(5) 0 0
Na2 Na1+ 0.017(1) 0.017(1) 0.022(2) 0.0085(5) 0 0
C1 C4+ 0.011(1) 0.011(1) 0.005(2) 0.0055(5) 0 0
C2 C4+ 0.007(1) 0.007(1) 0.006(2) 0.0035(5) 0 0
F1 F1- 0.024(2) 0.024(2) 0.007(2) 0.012(1) 0 0
O1 O2- 0.012(2) 0.009(1) 0.013(1) 0.0043(66) -.002(1) -.0012(6)
O2 O2- 0.010(1) 0.005(1) 0.017(1) 0.0025(5) -.001(2) -.002(4)
#End of TTdata_72992-ICSD