
#(C) 2019 by FIZ Karlsruhe - Leibniz Institute for Information Infrastructure.  All rights reserved.
data_73102-ICSD
_database_code_ICSD 73102
_audit_creation_date 1994-06-30
_chemical_name_systematic 'Sodium dioxodinitridomolybdate'
_chemical_formula_structural 'Na4 (Mo O2 N2)'
_chemical_formula_sum 'Mo1 N2 Na4 O2'
_chemical_name_structure_type Na4WO2N2
_exptl_crystal_density_diffrn 3.05
_publ_section_title
'Natrium oxonitridometallate(VI) von Molybdaen und Wolfram, Na4MO2N2 (M=Mo, W)'
loop_
_citation_id
_citation_journal_full
_citation_year
_citation_journal_volume
_citation_page_first
_citation_page_last
_citation_journal_id_ASTM
primary 'Zeitschrift fuer Anorganische und Allgemeine Chemie (1950) (DE)' 1993
619 1277 1282 ZAACAB
loop_
_publ_author_name
'Ostermann, D.'
'Jacobs, H.'
'Harbrecht, B.'
_cell_length_a 5.868(1)
_cell_length_b 5.894(1)
_cell_length_c 8.847(2)
_cell_angle_alpha 82.04(1)
_cell_angle_beta 71.82(2)
_cell_angle_gamma 68.28(1)
_cell_volume 269.98
_cell_formula_units_Z 2
_symmetry_space_group_name_H-M 'P -1'
_symmetry_Int_Tables_number 2
_refine_ls_R_factor_all 0.022
loop_
_symmetry_equiv_pos_site_id
_symmetry_equiv_pos_as_xyz
1 '-x, -y, -z'
2 'x, y, z'
loop_
_atom_type_symbol
_atom_type_oxidation_number
Mo6+ 6
Na1+ 1
N3- -3
O2- -2
N3- -3
O2- -2
loop_
_atom_site_label
_atom_site_type_symbol
_atom_site_symmetry_multiplicity
_atom_site_Wyckoff_symbol
_atom_site_fract_x
_atom_site_fract_y
_atom_site_fract_z
_atom_site_B_iso_or_equiv
_atom_site_occupancy
_atom_site_attached_hydrogens
Mo1 Mo6+ 2 i 0.15774(3) 0.27901(3) 0.24159(2) . 1. 0
Na1 Na1+ 2 i 0.5202(2) 0.2649(2) 0.4383(1) . 1. 0
Na2 Na1+ 2 i 0.9463(2) 0.2383(2) 0.6037(1) . 1. 0
Na3 Na1+ 2 i 0.3923(2) 0.2738(2) 0.8213(1) . 1. 0
Na4 Na1+ 2 i 0.2388(2) 0.7598(2) 0.9844(1) . 1. 0
N1 N3- 2 i 0.1620(4) 0.5380(4) 0.6428(3) . 1. 0
O1 O2- 2 i 0.3555(4) 0.4752(3) 0.1922(2) . 1. 0
N2 N3- 2 i 0.2941(4) 0.0311(4) 0.3718(2) . 1. 0
O2 O2- 2 i 0.1521(4) 0.1531(4) 0.0621(2) . 1. 0
loop_
_atom_site_aniso_label
_atom_site_aniso_type_symbol
_atom_site_aniso_U_11
_atom_site_aniso_U_22
_atom_site_aniso_U_33
_atom_site_aniso_U_12
_atom_site_aniso_U_13
_atom_site_aniso_U_23
Mo1 Mo6+ 0.00526(5) 0.00534(5) 0.00534(5) -.00174(4) -.00159(4) -.00022(4)
Na1 Na1+ 0.0134(3) 0.0141(4) 0.0155(4) -.0059(3) -.0065(3) 0.0004(3)
Na2 Na1+ 0.0151(4) 0.0132(4) 0.0125(4) -.0055(3) -.0009(3) -.0030(3)
Na3 Na1+ 0.0158(4) 0.0160(4) 0.0149(4) -.0068(3) -.0023(3) 0.0011(3)
Na4 Na1+ 0.0132(4) 0.0142(4) 0.0158(4) -.0023(3) -.0042(3) -.0008(3)
N1 N3- 0.0090(6) 0.0109(7) 0.0127(7) -.0029(5) -.0040(5) 0.0021(6)
O1 O2- 0.0140(6) 0.0140(6) 0.0132(7) -.0041(5) -.0028(5) -.0007(6)
N2 N3- 0.0091(6) 0.0077(6) 0.0118(7) -.0011(5) -.0036(5) -.0002(6)
O2 O2- 0.0194(7) 0.0199(7) 0.0171(7) -.0078(5) -.0051(5) -.0047(6)
#End of TTdata_73102-ICSD