
#(C) 2019 by FIZ Karlsruhe - Leibniz Institute for Information Infrastructure.  All rights reserved.
data_73163-ICSD
_database_code_ICSD 73163
_audit_creation_date 1994-06-30
_chemical_name_systematic 'Sodium tetraamidoaluminate'
_chemical_formula_structural 'Na (Al (N H2)4)'
_chemical_formula_sum 'H8 Al1 N4 Na1'
_chemical_name_structure_type NaAl(NH2)4
_exptl_crystal_density_diffrn 1.3
_publ_section_title

;
Neubestimmung von Struktur und Eigenschaften isotyper
Natriumtetraamidometallate des Aluminiums und Galliums
;
loop_
_citation_id
_citation_journal_full
_citation_year
_citation_journal_volume
_citation_page_first
_citation_page_last
_citation_journal_id_ASTM
primary 'Zeitschrift fuer Anorganische und Allgemeine Chemie (1950) (DE)' 1993
619 381 386 ZAACAB
loop_
_publ_author_name
'Jacobs, H.'
'Noecker, B.'
_cell_length_a 7.328(2)
_cell_length_b 6.047(2)
_cell_length_c 13.151(3)
_cell_angle_alpha 90.
_cell_angle_beta 94.04(1)
_cell_angle_gamma 90.
_cell_volume 581.3
_cell_formula_units_Z 4
_symmetry_space_group_name_H-M 'P 1 21/c 1'
_symmetry_Int_Tables_number 14
_refine_ls_R_factor_all 0.02
loop_
_symmetry_equiv_pos_site_id
_symmetry_equiv_pos_as_xyz
1 'x, -y+1/2, z+1/2'
2 '-x, -y, -z'
3 '-x, y+1/2, -z+1/2'
4 'x, y, z'
loop_
_atom_type_symbol
_atom_type_oxidation_number
Al3+ 3
Na1+ 1
N3- -3
H1+ 1
loop_
_atom_site_label
_atom_site_type_symbol
_atom_site_symmetry_multiplicity
_atom_site_Wyckoff_symbol
_atom_site_fract_x
_atom_site_fract_y
_atom_site_fract_z
_atom_site_B_iso_or_equiv
_atom_site_occupancy
_atom_site_attached_hydrogens
Al1 Al3+ 4 e 0.23815(9) 0.1527(1) 0.15513(5) . 1. 0
Na1 Na1+ 4 e 0.7277(1) 0.1617(2) 0.19084(7) . 1. 0
N1 N3- 4 e 0.4407(3) 0.2436(4) 0.0899(2) . 1. 0
N2 N3- 4 e 0.2798(3) 0.2546(4) 0.2867(2) . 1. 0
N3 N3- 4 e 0.0091(3) 0.2579(4) 0.1115(2) . 1. 0
N4 N3- 4 e 0.7688(3) 0.3472(4) 0.3576(2) . 1. 0
H1 H1+ 4 e 0.442(3) 0.366(4) 0.084(2) 2.3(6) 1. 0
H2 H1+ 4 e 0.562(3) 0.803(4) 0.967(2) 3.1(6) 1. 0
H3 H1+ 4 e 0.371(3) 0.240(5) 0.309(2) 2.8(6) 1. 0
H4 H1+ 4 e 0.788(4) 0.722(5) 0.168(2) 3.8(7) 1. 0
H5 H1+ 4 e 0.995(3) 0.379(5) 0.114(2) 3.2(6) 1. 0
H6 H1+ 4 e 0.026(3) 0.724(5) 0.446(2) 3.5(7) 1. 0
H7 H1+ 4 e 0.711(4) 0.291(5) 0.407(2) 3.9(7) 1. 0
H8 H1+ 4 e 0.855(3) 0.304(4) 0.367(2) 2.7(6) 1. 0
loop_
_atom_site_aniso_label
_atom_site_aniso_type_symbol
_atom_site_aniso_U_11
_atom_site_aniso_U_22
_atom_site_aniso_U_33
_atom_site_aniso_U_12
_atom_site_aniso_U_13
_atom_site_aniso_U_23
Al1 Al3+ 0.0296(3) 0.0348(3) 0.0408(3) -.0006(4) 0.0018(2) 0.0026(4)
Na1 Na1+ 0.0415(5) 0.0536(5) 0.0551(5) 0.0004(5) 0.0014(4) 0.0015(6)
N1 N3- 0.041(1) 0.048(1) 0.057(1) -.002(1) 0.0093(9) 0.007(1)
N2 N3- 0.049(1) 0.053(1) 0.048(1) -.002(1) 0.0030(9) -.005(1)
N3 N3- 0.036(1) 0.055(1) 0.068(1) 0.006(1) -.001(1) 0.006(1)
N4 N3- 0.048(1) 0.039(1) 0.058(1) 0.004(1) 0.0001(9) 0.002(1)
#End of TTdata_73163-ICSD