
#(C) 2019 by FIZ Karlsruhe - Leibniz Institute for Information Infrastructure.  All rights reserved.
data_73160-ICSD
_database_code_ICSD 73160
_audit_creation_date 1994-06-30
_audit_update_record 2000-07-15
_chemical_name_systematic 'Dibarium sodium dinickel nickel(III) oxide'
_chemical_formula_structural 'Ba2 Na Ni2 Ni O6'
_chemical_formula_sum 'Ba2 Na1 Ni3 O6'
_chemical_name_structure_type NaBa2Cu6O6
_exptl_crystal_density_diffrn 5.64
_publ_section_title

;
Das erste Alkali-Erdalkalimetall-Oxoniccolat(II,III): Na Ba2 (Ni2+)2 (Ni3+) O6
;
loop_
_citation_id
_citation_journal_full
_citation_year
_citation_journal_volume
_citation_page_first
_citation_page_last
_citation_journal_id_ASTM
primary 'Zeitschrift fuer Anorganische und Allgemeine Chemie (1950) (DE)' 1993
619 343 346 ZAACAB
loop_
_publ_author_name
'Strunk, M.'
'Mueller Buschbaum, H.'
_cell_length_a 8.310(8)
_cell_length_b 11.220(2)
_cell_length_c 14.397(6)
_cell_angle_alpha 90.
_cell_angle_beta 90.
_cell_angle_gamma 90.
_cell_volume 1342.35
_cell_formula_units_Z 8
_symmetry_space_group_name_H-M 'F m m m'
_symmetry_Int_Tables_number 69
_refine_ls_R_factor_all 0.084
loop_
_symmetry_equiv_pos_site_id
_symmetry_equiv_pos_as_xyz
1 'x, y, -z'
2 'x, -y, z'
3 '-x, y, z'
4 '-x, -y, -z'
5 '-x, -y, z'
6 '-x, y, -z'
7 'x, -y, -z'
8 'x, y, z'
9 'x, y+1/2, -z+1/2'
10 'x, -y+1/2, z+1/2'
11 '-x, y+1/2, z+1/2'
12 '-x, -y+1/2, -z+1/2'
13 '-x, -y+1/2, z+1/2'
14 '-x, y+1/2, -z+1/2'
15 'x, -y+1/2, -z+1/2'
16 'x, y+1/2, z+1/2'
17 'x+1/2, y, -z+1/2'
18 'x+1/2, -y, z+1/2'
19 '-x+1/2, y, z+1/2'
20 '-x+1/2, -y, -z+1/2'
21 '-x+1/2, -y, z+1/2'
22 '-x+1/2, y, -z+1/2'
23 'x+1/2, -y, -z+1/2'
24 'x+1/2, y, z+1/2'
25 'x+1/2, y+1/2, -z'
26 'x+1/2, -y+1/2, z'
27 '-x+1/2, y+1/2, z'
28 '-x+1/2, -y+1/2, -z'
29 '-x+1/2, -y+1/2, z'
30 '-x+1/2, y+1/2, -z'
31 'x+1/2, -y+1/2, -z'
32 'x+1/2, y+1/2, z'
loop_
_atom_type_symbol
_atom_type_oxidation_number
Ba2+ 2
Na1+ 1
Ni3+ 3
Ni2+ 2
O2- -2
loop_
_atom_site_label
_atom_site_type_symbol
_atom_site_symmetry_multiplicity
_atom_site_Wyckoff_symbol
_atom_site_fract_x
_atom_site_fract_y
_atom_site_fract_z
_atom_site_B_iso_or_equiv
_atom_site_occupancy
_atom_site_attached_hydrogens
Ba1 Ba2+ 8 h 0 0.2311(1) 0 0.59(2) 1. 0
Ba2 Ba2+ 8 f 0.25 0.25 0.25 0.47(2) 1. 0
Na1 Na1+ 8 i 0 0 0.330(1) 1.17(19) 1. 0
Ni1 Ni3+ 8 g 0.7009(5) 0 0 0.78(5) 1. 0
Ni2 Ni2+ 16 n 0.3510(3) 0 0.3552(2) 0.77(4) 1. 0
O1 O2- 16 m 0 0.113(1) 0.185(1) 0.88(20) 1. 0
O2 O2- 32 p 0.209(1) 0.888(1) 0.4055(7) 1.04(15) 1. 0
#End of TTdata_73160-ICSD