
#(C) 2019 by FIZ Karlsruhe - Leibniz Institute for Information Infrastructure.  All rights reserved.
data_73209-ICSD
_database_code_ICSD 73209
_audit_creation_date 1994-06-30
_audit_update_record 2011-02-01
_chemical_name_systematic 'Rubidium disodium nickel(I) oxide'
_chemical_formula_structural 'Rb Na2 Ni O2'
_chemical_formula_sum 'Na2 Ni1 O2 Rb1'
_chemical_name_structure_type RbNa2NiO2
_exptl_crystal_density_diffrn 3.56
_publ_section_title

;
Zur Existenz polynaerer Oxide der Alkalimetalle mit einwertigem Cobalt bzw.
Nickel
;
loop_
_citation_id
_citation_journal_full
_citation_year
_citation_journal_volume
_citation_page_first
_citation_page_last
_citation_journal_id_ASTM
primary 'Zeitschrift fuer Anorganische und Allgemeine Chemie (1950) (DE)' 1993
619 923 933 ZAACAB
loop_
_publ_author_name
'Burow, W.'
'Birx, J.'
'Bernhardt, F.'
'Hoppe, R.'
_cell_length_a 4.617(1)
_cell_length_b 4.617(1)
_cell_length_c 9.736(3)
_cell_angle_alpha 90.
_cell_angle_beta 90.
_cell_angle_gamma 90.
_cell_volume 207.54
_cell_formula_units_Z 2
_symmetry_space_group_name_H-M 'I 4/m m m'
_symmetry_Int_Tables_number 139
_refine_ls_R_factor_all 0.034
loop_
_symmetry_equiv_pos_site_id
_symmetry_equiv_pos_as_xyz
1 'y, x, -z'
2 '-y, -x, -z'
3 '-y, x, -z'
4 'y, -x, -z'
5 '-x, y, -z'
6 'x, -y, -z'
7 'x, y, -z'
8 '-x, -y, -z'
9 '-y, -x, z'
10 'y, x, z'
11 'y, -x, z'
12 '-y, x, z'
13 'x, -y, z'
14 '-x, y, z'
15 '-x, -y, z'
16 'x, y, z'
17 'y+1/2, x+1/2, -z+1/2'
18 '-y+1/2, -x+1/2, -z+1/2'
19 '-y+1/2, x+1/2, -z+1/2'
20 'y+1/2, -x+1/2, -z+1/2'
21 '-x+1/2, y+1/2, -z+1/2'
22 'x+1/2, -y+1/2, -z+1/2'
23 'x+1/2, y+1/2, -z+1/2'
24 '-x+1/2, -y+1/2, -z+1/2'
25 '-y+1/2, -x+1/2, z+1/2'
26 'y+1/2, x+1/2, z+1/2'
27 'y+1/2, -x+1/2, z+1/2'
28 '-y+1/2, x+1/2, z+1/2'
29 'x+1/2, -y+1/2, z+1/2'
30 '-x+1/2, y+1/2, z+1/2'
31 '-x+1/2, -y+1/2, z+1/2'
32 'x+1/2, y+1/2, z+1/2'
loop_
_atom_type_symbol
_atom_type_oxidation_number
Rb1+ 1
Ni1+ 1
Na1+ 1
O2- -2
loop_
_atom_site_label
_atom_site_type_symbol
_atom_site_symmetry_multiplicity
_atom_site_Wyckoff_symbol
_atom_site_fract_x
_atom_site_fract_y
_atom_site_fract_z
_atom_site_B_iso_or_equiv
_atom_site_occupancy
_atom_site_attached_hydrogens
Rb1 Rb1+ 2 a 0 0 0 . 1. 0
Ni1 Ni1+ 2 b 0.5 0.5 0 . 1. 0
Na1 Na1+ 4 d 0 0.5 0.25 . 1. 0
O1 O2- 4 e 0 0 0.3184(5) . 1. 0
loop_
_atom_site_aniso_label
_atom_site_aniso_type_symbol
_atom_site_aniso_U_11
_atom_site_aniso_U_22
_atom_site_aniso_U_33
_atom_site_aniso_U_12
_atom_site_aniso_U_13
_atom_site_aniso_U_23
Rb1 Rb1+ 0.0203(4) 0.0203(4) 0.0547(8) 0 0 0
Ni1 Ni1+ 0.0105(4) 0.0105(4) 0.0307(7) 0 0 0
Na1 Na1+ 0.0167(7) 0.0167(7) 0.0322(11) 0 0 0
O1 O2- 0.0181(13) 0.0181(13) 0.0297(23) 0 0 0
#End of TTdata_73209-ICSD