
#(C) 2019 by FIZ Karlsruhe - Leibniz Institute for Information Infrastructure.  All rights reserved.
data_73210-ICSD
_database_code_ICSD 73210
_audit_creation_date 1994-06-30
_chemical_name_systematic 'Potassium disodium nickel(I) oxide'
_chemical_formula_structural 'K Na2 Ni O2'
_chemical_formula_sum 'K1 Na2 Ni1 O2'
_exptl_crystal_density_diffrn 2.86
_publ_section_title

;
Zur Existenz polynaerer Oxide der Alkalimetalle mit einwertigem Cobalt bzw.
Nickel
;
loop_
_citation_id
_citation_journal_full
_citation_year
_citation_journal_volume
_citation_page_first
_citation_page_last
_citation_journal_id_ASTM
primary 'Zeitschrift fuer Anorganische und Allgemeine Chemie (1950) (DE)' 1993
619 923 933 ZAACAB
loop_
_publ_author_name
'Burow, W.'
'Birx, J.'
'Bernhardt, F.'
'Hoppe, R.'
_cell_length_a 10.485(3)
_cell_length_b 6.268(1)
_cell_length_c 6.219(1)
_cell_angle_alpha 90.
_cell_angle_beta 90.
_cell_angle_gamma 90.
_cell_volume 408.71
_cell_formula_units_Z 4
_symmetry_space_group_name_H-M 'C m m a'
_symmetry_Int_Tables_number 67
_refine_ls_R_factor_all 0.056
loop_
_symmetry_equiv_pos_site_id
_symmetry_equiv_pos_as_xyz
1 'x+1/2, y, -z'
2 'x+1/2, -y, z'
3 '-x, y, z'
4 '-x, -y, -z'
5 '-x+1/2, -y, z'
6 '-x+1/2, y, -z'
7 'x, -y, -z'
8 'x, y, z'
9 'x, y+1/2, -z'
10 'x, -y+1/2, z'
11 '-x+1/2, y+1/2, z'
12 '-x+1/2, -y+1/2, -z'
13 '-x, -y+1/2, z'
14 '-x, y+1/2, -z'
15 'x+1/2, -y+1/2, -z'
16 'x+1/2, y+1/2, z'
loop_
_atom_type_symbol
_atom_type_oxidation_number
Ni1+ 1
K1+ 1
Na1+ 1
O2- -2
loop_
_atom_site_label
_atom_site_type_symbol
_atom_site_symmetry_multiplicity
_atom_site_Wyckoff_symbol
_atom_site_fract_x
_atom_site_fract_y
_atom_site_fract_z
_atom_site_B_iso_or_equiv
_atom_site_occupancy
_atom_site_attached_hydrogens
Ni1 Ni1+ 4 g 0 0.25 0.2454(4) . 1. 0
K1 K1+ 8 n 0.5647(2) 0.75 0.7470(11) . 0.5 0
Na1 Na1+ 4 a 0.75 0.5 0 . 1. 0
Na2 Na1+ 4 b 0.75 0 0.5 . 1. 0
O1 O2- 8 n 0.8314(3) 0.75 0.7526(12) . 1. 0
loop_
_atom_site_aniso_label
_atom_site_aniso_type_symbol
_atom_site_aniso_U_11
_atom_site_aniso_U_22
_atom_site_aniso_U_33
_atom_site_aniso_U_12
_atom_site_aniso_U_13
_atom_site_aniso_U_23
Ni1 Ni1+ 0.0201(4) 0.0156(4) 0.0144(4) 0 0 0
K1 K1+ 0.0355(12) 0.0276(11) 0.0280(11) 0 0.0064(20) 0
Na1 Na1+ 0.0354(16) 0.0336(41) 0.0171(25) 0 0 0
Na2 Na1+ 0.0472(46) 0.0209(42) 0.0199(33) 0 0 0
O1 O2- 0.0201(16) 0.0230(16) 0.0439(20) 0 0.0074(28) 0
#End of TTdata_73210-ICSD