
#(C) 2019 by FIZ Karlsruhe - Leibniz Institute for Information Infrastructure.  All rights reserved.
data_73300-ICSD
_database_code_ICSD 73300
_audit_creation_date 1994-06-30
_chemical_name_systematic 'Tripotassium sodium dirhenate(VII)'
_chemical_formula_structural 'K3 Na (Re2 O9)'
_chemical_formula_sum 'K3 Na1 O9 Re2'
_chemical_name_structure_type BaFeO2+x
_exptl_crystal_density_diffrn 4.86
_cell_measurement_temperature 298.
_publ_section_title

;
Ein Orthoperrhenat mit flaechenverknuepften ReO6-Oktaedern: Hochdrucksynthese
und Kristallstruktur von K3NaRe2O9
;
loop_
_citation_id
_citation_journal_full
_citation_year
_citation_journal_volume
_citation_page_first
_citation_page_last
_citation_journal_id_ASTM
primary 'Zeitschrift fuer Naturforschung, B: A Journal of Chemical Sciences'
1993 48 237 239 ZNBSEN
loop_
_publ_author_name
'Range, K.J.'
'Atzesdorfer, A.'
_cell_length_a 6.012(1)
_cell_length_b 6.012(1)
_cell_length_c 14.342(14)
_cell_angle_alpha 90.
_cell_angle_beta 90.
_cell_angle_gamma 120.
_cell_volume 448.93
_cell_formula_units_Z 2
_symmetry_space_group_name_H-M 'P 63/m m c'
_symmetry_Int_Tables_number 194
_refine_ls_R_factor_all 0.031
loop_
_symmetry_equiv_pos_site_id
_symmetry_equiv_pos_as_xyz
1 'x, x-y, -z+1/2'
2 '-x+y, y, -z+1/2'
3 '-y, -x, -z+1/2'
4 '-x+y, -x, -z+1/2'
5 '-y, x-y, -z+1/2'
6 'x, y, -z+1/2'
7 '-x, -x+y, z+1/2'
8 'x-y, -y, z+1/2'
9 'y, x, z+1/2'
10 'x-y, x, z+1/2'
11 'y, -x+y, z+1/2'
12 '-x, -y, z+1/2'
13 '-x, -x+y, -z'
14 'x-y, -y, -z'
15 'y, x, -z'
16 'x-y, x, -z'
17 'y, -x+y, -z'
18 '-x, -y, -z'
19 'x, x-y, z'
20 '-x+y, y, z'
21 '-y, -x, z'
22 '-x+y, -x, z'
23 '-y, x-y, z'
24 'x, y, z'
loop_
_atom_type_symbol
_atom_type_oxidation_number
K1+ 1
Na1+ 1
Re7+ 7
O2- -2
loop_
_atom_site_label
_atom_site_type_symbol
_atom_site_symmetry_multiplicity
_atom_site_Wyckoff_symbol
_atom_site_fract_x
_atom_site_fract_y
_atom_site_fract_z
_atom_site_B_iso_or_equiv
_atom_site_occupancy
_atom_site_attached_hydrogens
K1 K1+ 2 b 0 0 0.25 0.025(2) 1. 0
K2 K1+ 4 f 0.3333 0.6667 0.1139(1) 0.029(2) 1. 0
Na1 Na1+ 2 a 0 0 0 0.022(4) 1. 0
Re1 Re7+ 4 f 0.3333 0.6667 0.8518(1) 0.0136(3) 1. 0
O1 O2- 6 h 0.5319(8) 0.0638(16) 0.25 0.016(5) 1. 0
O2 O2- 12 k 0.3680(14) 0.1840(7) 0.0919(5) 0.021(5) 1. 0
#End of TTdata_73300-ICSD