
#(C) 2019 by FIZ Karlsruhe - Leibniz Institute for Information Infrastructure.  All rights reserved.
data_73464-ICSD
_database_code_ICSD 73464
_audit_creation_date 1994-06-30
_audit_update_record 2008-08-01
_chemical_name_systematic 'Tripotassium sodium bis(selenate(VI)) - HT'
_chemical_formula_structural 'K3 Na (Se O4)2'
_chemical_formula_sum 'K3 Na1 O8 Se2'
_chemical_name_structure_type K3Na(SO4)2
_exptl_crystal_density_diffrn 3.1
_cell_measurement_temperature 390.
_publ_section_title

;
Structure determination of the ferroelastic triple-twinned phase of K3 Na (Se
O4)2 at 291 K and its parent phase at 390 K
;
loop_
_citation_id
_citation_journal_full
_citation_year
_citation_journal_volume
_citation_page_first
_citation_page_last
_citation_journal_id_ASTM
primary 'Acta Crystallographica, Section B: Structural Science' 1993 49 826 832
ASBSDK
loop_
_publ_author_name
'Fabry, J.'
'Breczewski, T.'
'Petricek, V.'
_cell_length_a 5.906(3)
_cell_length_b 5.906(3)
_cell_length_c 7.552(1)
_cell_angle_alpha 90.
_cell_angle_beta 90.
_cell_angle_gamma 120.
_cell_volume 228.13
_cell_formula_units_Z 1
_symmetry_space_group_name_H-M 'P -3 m 1'
_symmetry_Int_Tables_number 164
_refine_ls_R_factor_all 0.013
loop_
_symmetry_equiv_pos_site_id
_symmetry_equiv_pos_as_xyz
1 'x-y, -y, -z'
2 '-x, -x+y, -z'
3 'y, x, -z'
4 'x-y, x, -z'
5 'y, -x+y, -z'
6 '-x, -y, -z'
7 '-x+y, y, z'
8 'x, x-y, z'
9 '-y, -x, z'
10 '-x+y, -x, z'
11 '-y, x-y, z'
12 'x, y, z'
loop_
_atom_type_symbol
_atom_type_oxidation_number
Se6+ 6
K1+ 1
Na1+ 1
O2- -2
loop_
_atom_site_label
_atom_site_type_symbol
_atom_site_symmetry_multiplicity
_atom_site_Wyckoff_symbol
_atom_site_fract_x
_atom_site_fract_y
_atom_site_fract_z
_atom_site_B_iso_or_equiv
_atom_site_occupancy
_atom_site_attached_hydrogens
Se1 Se6+ 2 d 0.3333 0.6667 0.27241(4) . 1. 0
K1 K1+ 2 d 0.3333 0.6667 0.8240(1) . 1. 0
K2 K1+ 1 b 0 0 0.5 . 1. 0
Na1 Na1+ 1 a 0 0 0 . 1. 0
O1 O2- 2 d 0.3333 0.6667 0.4852(5) . 1. 0
O2 O2- 6 i 0.1842(2) 0.3684(4) 0.1965(3) . 1. 0
loop_
_atom_site_aniso_label
_atom_site_aniso_type_symbol
_atom_site_aniso_U_11
_atom_site_aniso_U_22
_atom_site_aniso_U_33
_atom_site_aniso_U_12
_atom_site_aniso_U_13
_atom_site_aniso_U_23
Se1 Se6+ 0.0184(2) 0.0184(2) 0.0173(2) 0.0092(1) 0 0.0(5)
K1 K1+ 0.0303(3) 0.0303(3) 0.0277(5) 0.0151(2) 0 0
K2 K1+ 0.0519(6) 0.0519(6) 0.0285(7) 0.0259(3) 0 0
Na1 Na1+ 0.0245(7) 0.0245(7) 0.0307(11) 0.0122(3) 0 0
O1 O2- 0.0918(22) 0.0918(22) 0.0207(16) 0.0459(11) 0 0
O2 O2- 0.0391(8) 0.0241(9) 0.0649(11) 0.0121(4) -.0086(5) -.0172(9)
#End of TTdata_73464-ICSD