
#(C) 2019 by FIZ Karlsruhe - Leibniz Institute for Information Infrastructure.  All rights reserved.
data_73499-ICSD
_database_code_ICSD 73499
_audit_creation_date 1994-06-30
_audit_update_record 2012-02-01
_chemical_name_systematic 'Sodium chlorate(V) bromate(V) (1/0.47/0.53)'
_chemical_formula_structural 'Na ((Cl O3)0.468 (Br O3)0.533)'
_chemical_formula_sum 'Br0.533 Cl0.468 Na1 O3.003'
_chemical_name_structure_type Na(Cl,Br)O3(P1)
_exptl_crystal_density_diffrn 2.96
_publ_section_title

;
Reevaluating structures for mixed crystals of simple isomorphous salts:
NaClxBr1-xO3
;
loop_
_citation_id
_citation_journal_full
_citation_year
_citation_journal_volume
_citation_page_first
_citation_page_last
_citation_journal_id_ASTM
primary 'Journal of the American Chemical Society' 1993 115 3366 3367 JACSAT
loop_
_publ_author_name
'Gopalan, P.'
'Peterson, M.L.'
'Crundwell, G.'
'Kahr, B.'
_cell_length_a 6.630(2)
_cell_length_b 6.635(1)
_cell_length_c 6.635(1)
_cell_angle_alpha 89.96(2)
_cell_angle_beta 90.21(2)
_cell_angle_gamma 90.04(2)
_cell_volume 291.87
_cell_formula_units_Z 4
_symmetry_space_group_name_H-M 'P 1'
_symmetry_Int_Tables_number 1
_refine_ls_R_factor_all 0.029
loop_
_symmetry_equiv_pos_site_id
_symmetry_equiv_pos_as_xyz
1 'x, y, z'
loop_
_atom_type_symbol
_atom_type_oxidation_number
Br5+ 5
Cl5+ 5
Br5+ 5
Cl5+ 5
Br5+ 5
Cl5+ 5
Br5+ 5
Cl5+ 5
Na1+ 1
O2- -2
loop_
_atom_site_label
_atom_site_type_symbol
_atom_site_symmetry_multiplicity
_atom_site_Wyckoff_symbol
_atom_site_fract_x
_atom_site_fract_y
_atom_site_fract_z
_atom_site_B_iso_or_equiv
_atom_site_occupancy
_atom_site_attached_hydrogens
Br1 Br5+ 1 a 0.3917(1) 0.4131(1) 0.3985(1) . 0.63(1) 0
Cl1 Cl5+ 1 a 0.3917(1) 0.4131(1) 0.3985(1) . 0.37(1) 0
Br2 Br5+ 1 a 0.0733(1) 0.5947(1) 0.8998(1) . 0.50(1) 0
Cl2 Cl5+ 1 a 0.0733(1) 0.5947(1) 0.8998(1) . 0.50(1) 0
Br3 Br5+ 1 a 0.5745(1) 0.9132(2) 0.0808(1) . 0.63(1) 0
Cl3 Cl5+ 1 a 0.5745(1) 0.9132(2) 0.0808(1) . 0.37(1) 0
Br4 Br5+ 1 a 0.8954(1) 0.0944(1) 0.5783(1) . 0.37(1) 0
Cl4 Cl5+ 1 a 0.8954(1) 0.0944(1) 0.5783(1) . 0.63(1) 0
Na1 Na1+ 1 a 0.0616(4) 0.0820(5) 0.0617(4) . 1. 0
Na2 Na1+ 1 a 0.4156(4) -.0651(5) 0.5626(4) . 1. 0
Na3 Na1+ 1 a -.0853(4) 0.5801(5) 0.4166(5) . 1. 0
Na4 Na1+ 1 a 0.5632(4) 0.4326(5) -.0864(5) . 1. 0
O1 O2- 1 a 0.2822(8) 0.6050(8) 0.4949(8) . 1. 0
O2 O2- 1 a 0.1902(9) 0.4156(8) 0.9958(8) . 1. 0
O3 O2- 1 a 0.6942(8) 0.1062(8) -.0156(9) . 1. 0
O4 O2- 1 a 0.7870(8) -.0852(8) 0.4816(9) . 1. 0
O5 O2- 1 a 0.4933(8) 0.3042(9) 0.5850(8) . 1. 0
O6 O2- 1 a 0.9960(8) 0.2093(8) 0.3954(8) . 1. 0
O7 O2- 1 a -.0186(8) 0.7144(9) 0.0818(7) . 1. 0
O8 O2- 1 a 0.4828(8) 0.8010(9) 0.8938(8) . 1. 0
O9 O2- 1 a 0.5849(7) 0.5151(8) 0.2843(8) . 1. 0
O10 O2- 1 a 0.3913(8) 0.018(1) 0.1938(8) . 1. 0
O11 O2- 1 a 0.0830(8) 0.005(1) 0.6927(9) . 1. 0
O12 O2- 1 a 0.8914(8) 0.5057(8) 0.7851(8) . 1. 0
loop_
_atom_site_aniso_label
_atom_site_aniso_type_symbol
_atom_site_aniso_B_11
_atom_site_aniso_B_22
_atom_site_aniso_B_33
_atom_site_aniso_B_12
_atom_site_aniso_B_13
_atom_site_aniso_B_23
Br1 Br5+ 0.92(2) 0.95(2) 0.93(2) 0.09(2) 0.10(2) 0.05(2)
Cl1 Cl5+ 0.92(2) 0.95(2) 0.93(2) 0.09(2) 0.10(2) 0.05(2)
Br2 Br5+ 0.88(2) 0.93(2) 1.00(2) 0.03(2) -.03(2) 0.07(2)
Cl2 Cl5+ 0.88(2) 0.93(2) 1.00(2) 0.03(2) -.03(2) 0.07(2)
Br3 Br5+ 0.88(2) 0.88(2) 0.87(2) 0.00(2) 0.03(2) -.06(2)
Cl3 Cl5+ 0.88(2) 0.88(2) 0.87(2) 0.00(2) 0.03(2) -.06(2)
Br4 Br5+ 1.04(2) 0.91(2) 0.93(2) -.14(2) -.11(2) -.01(2)
Cl4 Cl5+ 1.04(2) 0.91(2) 0.93(2) -.14(2) -.11(2) -.01(2)
Na1 Na1+ 1.70(9) 1.96(9) 1.70(9) -.32(8) -.26(8) -.19(8)
Na2 Na1+ 1.73(9) 1.61(9) 1.57(9) -.17(8) 0.04(8) 0.16(8)
Na3 Na1+ 1.60(9) 2.0(1) 1.60(9) 0.17(9) -.10(8) 0.39(9)
Na4 Na1+ 1.59(9) 1.7(1) 1.7(1) 0.11(9) 0.23(8) -.05(9)
O1 O2- 1.6(1) 1.4(2) 2.1(2) 0.1(1) 0.3(1) -.7(1)
O2 O2- 2.3(2) 1.4(2) 1.6(2) 0.1(2) -.1(1) 0.2(1)
O3 O2- 2.0(2) 1.3(2) 2.5(2) -.1(1) 0.5(2) 0.2(2)
O4 O2- 1.8(2) 1.6(2) 2.5(2) -.1(1) -.5(2) -.1(2)
O5 O2- 1.9(2) 2.1(2) 1.8(2) 0.1(2) -.6(1) 0.1(2)
O6 O2- 2.2(2) 1.9(2) 1.5(1) -.5(1) 0.1(1) 0.1(1)
O7 O2- 2.4(2) 2.4(2) 0.9(1) -.1(2) 0.8(1) -.1(1)
O8 O2- 2.4(2) 2.0(2) 1.4(1) -.1(2) 0.0(1) -.4(1)
O9 O2- 1.4(1) 1.6(2) 1.7(1) -.2(1) 0.5(1) -.4(1)
O10 O2- 1.1(1) 2.8(2) 1.8(2) 0.4(2) 0.1(1) -.4(2)
O11 O2- 1.6(2) 2.6(2) 2.5(2) 0.2(2) -.3(2) 0.6(2)
O12 O2- 2.1(2) 2.1(2) 2.0(2) -1. 0.1(1) -.3(1)
#End of TTdata_73499-ICSD