
#(C) 2019 by FIZ Karlsruhe - Leibniz Institute for Information Infrastructure.  All rights reserved.
data_73498-ICSD
_database_code_ICSD 73498
_audit_creation_date 1994-06-30
_chemical_name_systematic 'Sodium chlorobromate *'
_chemical_formula_structural 'Na ((Cl0.485 Br0.515) O3)'
_chemical_formula_sum 'Br0.515 Cl0.485 Na1 O3'
_exptl_crystal_density_diffrn 2.94
_publ_section_title

;
Reevaluating structures for mixed crystals of simple isomorphous salts:
NaClxBr1-xO3
;
loop_
_citation_id
_citation_journal_full
_citation_year
_citation_journal_volume
_citation_page_first
_citation_page_last
_citation_journal_id_ASTM
primary 'Journal of the American Chemical Society' 1993 115 3366 3367 JACSAT
loop_
_publ_author_name
'Gopalan, P.'
'Peterson, M.L.'
'Crundwell, G.'
'Kahr, B.'
_cell_length_a 6.636(2)
_cell_length_b 6.638(1)
_cell_length_c 6.642(1)
_cell_angle_alpha 89.97(1)
_cell_angle_beta 90.18(2)
_cell_angle_gamma 90.02(1)
_cell_volume 292.58
_cell_formula_units_Z 4
_symmetry_space_group_name_H-M 'P 1'
_symmetry_Int_Tables_number 1
_refine_ls_R_factor_all 0.041
loop_
_symmetry_equiv_pos_site_id
_symmetry_equiv_pos_as_xyz
1 'x, y, z'
loop_
_atom_type_symbol
_atom_type_oxidation_number
Br5+ 5
Cl5+ 5
Br5+ 5
Cl5+ 5
Br5+ 5
Cl5+ 5
Br5+ 5
Cl5+ 5
Na1+ 1
O2- -2
loop_
_atom_site_label
_atom_site_type_symbol
_atom_site_symmetry_multiplicity
_atom_site_Wyckoff_symbol
_atom_site_fract_x
_atom_site_fract_y
_atom_site_fract_z
_atom_site_B_iso_or_equiv
_atom_site_occupancy
_atom_site_attached_hydrogens
Br1 Br5+ 1 a 0.4087(1) 0.6011(2) 0.1588(1) . 0.64(1) 0
Cl1 Cl5+ 1 a 0.4087(1) 0.6011(2) 0.1588(1) . 0.36(1) 0
Br2 Br5+ 1 a 0.0894(1) 0.4206(2) 0.6608(2) . 0.47(1) 0
Cl2 Cl5+ 1 a 0.0894(1) 0.4206(2) 0.6608(2) . 0.53(1) 0
Br3 Br5+ 1 a 0.5913(1) 0.1011(2) 0.8412(1) . 0.59(1) 0
Cl3 Cl5+ 1 a 0.5913(1) 0.1011(2) 0.8412(1) . 0.41(1) 0
Br4 Br5+ 1 a 0.9106(1) -.0794(2) 0.3392(2) . 0.36(1) 0
Cl4 Cl5+ 1 a 0.9106(1) -.0794(2) 0.3392(2) . 0.64(1) 0
Na1 Na1+ 1 a 0.5746(4) 0.5841(6) 0.6745(5) . 1. 0
Na2 Na1+ 1 a 0.0738(4) 0.9375(6) 0.8221(5) . 1. 0
Na3 Na1+ 1 a 0.4254(4) 0.0841(6) 0.3255(5) . 1. 0
Na4 Na1+ 1 a -.0738(4) 0.4375(6) 0.1779(5) . 1. 0
O1 O2- 1 a 0.3036 0.4257 0.2492 2.0(3) 0.36(1) 0
O2 O2- 1 a 0.5852 0.5122 0.0545 1.8(2) 0.36(1) 0
O3 O2- 1 a 0.4998 0.7086 0.333 2.0(3) 0.36(1) 0
O4 O2- 1 a -.0002 0.3144 0.8356 1.9(2) 0.53(1) 0
O5 O2- 1 a 0.1946 0.5952 0.754 2.0(2) 0.53(1) 0
O6 O2- 1 a 0.9149 0.5116 0.553 2.2(2) 0.53(1) 0
O7 O2- 1 a 0.6964 0.9257 0.7508 2.0(3) 0.41(1) 0
O8 O2- 1 a 0.4148 0.0122 0.9455 1.8(2) 0.41(1) 0
O9 O2- 1 a 0.5002 0.2086 0.667 2.0(3) 0.41(1) 0
O10 O2- 1 a 0.0002 0.8144 0.1644 1.9(2) 0.64(1) 0
O11 O2- 1 a 0.8054 0.0952 0.246 2.0(2) 0.64(1) 0
O12 O2- 1 a 0.0851 0.0116 0.447 2.2(2) 0.64(1) 0
O13 O2- 1 a 0.2922 0.4067 0.2591 2.0(3) 0.64(1) 0
O14 O2- 1 a 0.6044 0.5002 0.0431 1.8(2) 0.64(1) 0
O15 O2- 1 a 0.5098 0.7203 0.352 2.0(3) 0.64(1) 0
O16 O2- 1 a -.01 0.3029 0.8547 1.9(2) 0.47(1) 0
O17 O2- 1 a 0.2061 0.6142 0.7641 2.0(2) 0.47(1) 0
O18 O2- 1 a 0.8959 0.5215 0.5412 2.2(2) 0.47(1) 0
O19 O2- 1 a 0.7078 0.9067 0.7409 2.0(3) 0.59(1) 0
O20 O2- 1 a 0.3956 0.0002 0.9569 1.8(2) 0.59(1) 0
O21 O2- 1 a 0.4902 0.2203 0.648 2.0(3) 0.59(1) 0
O22 O2- 1 a 0.01 0.8029 0.1453 1.9(2) 0.36(1) 0
O23 O2- 1 a 0.7939 0.1142 0.2359 2.0(2) 0.36(1) 0
O24 O2- 1 a 0.1041 0.0215 0.4588 2.2(2) 0.36(1) 0
loop_
_atom_site_aniso_label
_atom_site_aniso_type_symbol
_atom_site_aniso_B_11
_atom_site_aniso_B_22
_atom_site_aniso_B_33
_atom_site_aniso_B_12
_atom_site_aniso_B_13
_atom_site_aniso_B_23
Br1 Br5+ 1.02(3) 0.91(3) 1.02(3) 0.03(3) 0.03(2) 0.08(3)
Cl1 Cl5+ 1.02(3) 0.91(3) 1.02(3) 0.03(3) 0.03(2) 0.08(3)
Br2 Br5+ 0.94(3) 0.92(4) 1.04(3) -.27(3) -.04(3) 0.00(3)
Cl2 Cl5+ 0.94(3) 0.92(4) 1.04(3) -.27(3) -.04(3) 0.00(3)
Br3 Br5+ 1.02(3) 0.91(3) 1.02(3) -.03(3) 0.03(2) -.08(3)
Cl3 Cl5+ 1.02(3) 0.91(3) 1.02(3) -.03(3) 0.03(2) -.08(3)
Br4 Br5+ 0.94(3) 0.92(4) 1.04(3) 0.27(3) -.04(3) 0.00(3)
Cl4 Cl5+ 0.94(3) 0.92(4) 1.04(3) 0.27(3) -.04(3) 0.00(3)
Na1 Na1+ 2.0(1) 1.7(1) 1.5(1) -.3(1) 0.3(1) 0.1(1)
Na2 Na1+ 1.8(1) 1.8(1) 2.0(1) 0.1(1) -.2(1) 0.3(1)
Na3 Na1+ 2.0(1) 1.7(1) 1.5(1) 0.3(1) 0.3(1) -.1(1)
Na4 Na1+ 1.8(1) 1.8(1) 2.0(1) -.1(1) -.2(1) -.3(1)
#End of TTdata_73498-ICSD