
#(C) 2019 by FIZ Karlsruhe - Leibniz Institute for Information Infrastructure.  All rights reserved.
data_73501-ICSD
_database_code_ICSD 73501
_audit_creation_date 1994-06-30
_chemical_name_systematic 'Sodium chlorobromate *'
_chemical_formula_structural 'Na ((Cl0.35 Br0.65) O3)'
_chemical_formula_sum 'Br0.65 Cl0.35 Na1 O3'
_exptl_crystal_density_diffrn 3.03
_publ_section_title

;
Reevaluating structures for mixed crystals of simple isomorphous salts:
NaClxBr1-xO3
;
loop_
_citation_id
_citation_journal_full
_citation_year
_citation_journal_volume
_citation_page_first
_citation_page_last
_citation_journal_id_ASTM
primary 'Journal of the American Chemical Society' 1993 115 3366 3367 JACSAT
loop_
_publ_author_name
'Gopalan, P.'
'Peterson, M.L.'
'Crundwell, G.'
'Kahr, B.'
_cell_length_a 6.666(1)
_cell_length_b 6.668(1)
_cell_length_c 6.669(1)
_cell_angle_alpha 89.99(1)
_cell_angle_beta 90.18(1)
_cell_angle_gamma 90.05(2)
_cell_volume 296.43
_cell_formula_units_Z 4
_symmetry_space_group_name_H-M 'P 1'
_symmetry_Int_Tables_number 1
_refine_ls_R_factor_all 0.049
loop_
_symmetry_equiv_pos_site_id
_symmetry_equiv_pos_as_xyz
1 'x, y, z'
loop_
_atom_type_symbol
_atom_type_oxidation_number
Br5+ 5
Cl5+ 5
Br5+ 5
Cl5+ 5
Br5+ 5
Cl5+ 5
Br5+ 5
Cl5+ 5
Na1+ 1
O2- -2
loop_
_atom_site_label
_atom_site_type_symbol
_atom_site_symmetry_multiplicity
_atom_site_Wyckoff_symbol
_atom_site_fract_x
_atom_site_fract_y
_atom_site_fract_z
_atom_site_B_iso_or_equiv
_atom_site_occupancy
_atom_site_attached_hydrogens
Br1 Br5+ 1 a 0.5923(2) 0.0605(4) 0.8422(2) 0.83(3) 0.71(1) 0
Cl1 Cl5+ 1 a 0.5923(2) 0.0605(4) 0.8422(2) 0.83(3) 0.29(1) 0
Br2 Br5+ 1 a 0.9087(2) 0.8781(3) 0.3406(3) 0.90(3) 0.59(1) 0
Cl2 Cl5+ 1 a 0.9087(2) 0.8781(3) 0.3406(3) 0.90(3) 0.41(1) 0
Br3 Br5+ 1 a 0.4077(2) 0.5605(4) 0.1578(2) 0.83(3) 0.69(1) 0
Cl3 Cl5+ 1 a 0.4077(2) 0.5605(4) 0.1578(2) 0.83(3) 0.31(1) 0
Br4 Br5+ 1 a 0.0913(2) 0.3781(3) 0.6594(2) 0.90(3) 0.61(1) 0
Cl4 Cl5+ 1 a 0.0913(2) 0.3781(3) 0.6594(2) 0.90(3) 0.39(1) 0
Na1 Na1+ 1 a 0.5769(8) 0.5520(6) 0.6740(8) 1.7(1) 1. 0
Na2 Na1+ 1 a 0.0761(8) 0.9040(1) 0.8230(8) 1.9(1) 1. 0
Na3 Na1+ 1 a 0.4231(8) 0.0520(8) 0.3260(8) 1.7(1) 1. 0
Na4 Na1+ 1 a -.0761(8) 0.4040(1) 0.1770(8) 1.9(1) 1. 0
O1 O2- 1 a 0.6967 0.8881 0.7467 1.9(2) 0.29(1) 0
O2 O2- 1 a 0.4138 -.0249 0.9448 1.8(2) 0.29(1) 0
O3 O2- 1 a 0.5029 0.1746 0.6726 1.7(3) 0.29(1) 0
O4 O2- 1 a -.0031 0.2848 0.8386 1.9(2) 0.41(1) 0
O5 O2- 1 a 0.1908 0.5569 0.7478 1.8(2) 0.41(1) 0
O6 O2- 1 a 0.9178 0.474 0.557 1.6(2) 0.41(1) 0
O7 O2- 1 a 0.3033 0.3881 0.2533 1.9(2) 0.31(1) 0
O8 O2- 1 a 0.5862 0.4751 0.0552 1.8(2) 0.31(1) 0
O9 O2- 1 a 0.4971 0.6746 0.3274 1.7(2) 0.31(1) 0
O10 O2- 1 a 0.0031 0.7848 0.1614 1.9(2) 0.39(1) 0
O11 O2- 1 a 0.8092 0.0569 0.2522 1.8(2) 0.39(1) 0
O12 O2- 1 a 0.0822 0.974 0.443 1.7(2) 0.39(1) 0
O13 O2- 1 a 0.7081 0.8693 0.7363 1.9(2) 0.71(1) 0
O14 O2- 1 a 0.3943 -.0342 0.956 1.8(2) 0.71(1) 0
O15 O2- 1 a 0.493 0.1871 0.6541 1.7(2) 0.71(1) 0
O16 O2- 1 a -.0134 0.2747 0.8582 1.9(2) 0.59(1) 0
O17 O2- 1 a 0.2016 0.5764 0.7575 1.8(2) 0.59(1) 0
O18 O2- 1 a 0.8989 0.4844 0.5458 1.7(2) 0.59(1) 0
O19 O2- 1 a 0.2919 0.3693 0.2637 1.9(2) 0.69(1) 0
O20 O2- 1 a 0.6057 0.4658 0.044 1.8(2) 0.69(1) 0
O21 O2- 1 a 0.507 0.6871 0.3459 1.7(2) 0.69(1) 0
O22 O2- 1 a 0.0134 0.7747 0.1418 1.9(2) 0.61(1) 0
O23 O2- 1 a 0.7984 0.0764 0.2425 1.8(2) 0.61(1) 0
O24 O2- 1 a 0.1011 0.9844 0.4542 1.7(2) 0.61(1) 0
#End of TTdata_73501-ICSD