
#(C) 2019 by FIZ Karlsruhe - Leibniz Institute for Information Infrastructure.  All rights reserved.
data_73523-ICSD
_database_code_ICSD 73523
_audit_creation_date 1994-06-30
_audit_update_record 2000-07-15
_chemical_name_systematic 'Sodium ferro(III)titanate'
_chemical_formula_structural 'Na (Fe Ti O4)'
_chemical_formula_sum 'Fe1 Na1 O4 Ti1'
_chemical_name_structure_type CaV2O4
_exptl_crystal_density_diffrn 4.35
_publ_section_title

;
Zur Existenz des Ca Fe2 O4-Typs von Verbindungen der Zusammensetzung Na A3+
M4+ O4. Roentgenstrukturanalysen von Na Fe Ti O4 und Na0.7 (Fe, Al)0.7 Ti1.3
O4
;
loop_
_citation_id
_citation_journal_full
_citation_year
_citation_journal_volume
_citation_page_first
_citation_page_last
_citation_journal_id_ASTM
primary 'Journal of Alloys and Compounds' 1993 199 5 8 JALCEU
loop_
_publ_author_name
'Mueller Buschbaum, H.'
'Frerichs, D.'
_cell_length_a 9.1663(36)
_cell_length_b 2.9624(8)
_cell_length_c 10.7277(23)
_cell_angle_alpha 90.
_cell_angle_beta 90.
_cell_angle_gamma 90.
_cell_volume 291.3
_cell_formula_units_Z 4
_symmetry_space_group_name_H-M 'P n m a'
_symmetry_Int_Tables_number 62
_refine_ls_R_factor_all 0.055
loop_
_symmetry_equiv_pos_site_id
_symmetry_equiv_pos_as_xyz
1 'x+1/2, y, -z+1/2'
2 'x, -y+1/2, z'
3 '-x+1/2, y+1/2, z+1/2'
4 '-x, -y, -z'
5 '-x+1/2, -y, z+1/2'
6 '-x, y+1/2, -z'
7 'x+1/2, -y+1/2, -z+1/2'
8 'x, y, z'
loop_
_atom_type_symbol
_atom_type_oxidation_number
Na1+ 1
Fe3+ 3
Ti4+ 4
Fe3+ 3
Ti4+ 4
O2- -2
loop_
_atom_site_label
_atom_site_type_symbol
_atom_site_symmetry_multiplicity
_atom_site_Wyckoff_symbol
_atom_site_fract_x
_atom_site_fract_y
_atom_site_fract_z
_atom_site_B_iso_or_equiv
_atom_site_occupancy
_atom_site_attached_hydrogens
Na1 Na1+ 4 c 0.2422(7) 0.25 0.3474(7) 0.97(9) 1. 0
Fe1 Fe3+ 4 c 0.0636(3) 0.25 0.1116(3) 0.57(4) 0.5 0
Ti1 Ti4+ 4 c 0.0636(3) 0.25 0.1116(3) 0.57(4) 0.5 0
Fe2 Fe3+ 4 c 0.0839(3) 0.25 0.6045(3) 0.67(4) 0.5 0
Ti2 Ti4+ 4 c 0.0839(3) 0.25 0.6045(3) 0.67(4) 0.5 0
O1 O2- 4 c 0.886(1) 0.25 0.517(1) 0.61(11) 1. 0
O2 O2- 4 c 0.974(1) 0.25 0.286(1) 0.92(11) 1. 0
O3 O2- 4 c 0.296(1) 0.25 0.649(1) 0.81(11) 1. 0
O4 O2- 4 c 0.076(1) 0.25 0.926(1) 0.73(11) 1. 0
#End of TTdata_73523-ICSD