
#(C) 2019 by FIZ Karlsruhe - Leibniz Institute for Information Infrastructure.  All rights reserved.
data_73524-ICSD
_database_code_ICSD 73524
_audit_creation_date 1994-06-30
_audit_update_record 2000-07-15
_chemical_name_systematic
'Sodium iron(III) aluminium titanium oxide (.7/.6/.1/1.3/4)'
_chemical_formula_structural 'Na0.7 (Fe0.58 Al0.12 Ti1.3) O4'
_chemical_formula_sum 'Al0.12 Fe0.58 Na0.7 O4 Ti1.3'
_chemical_name_structure_type CaV2O4-defect
_exptl_crystal_density_diffrn 3.83
_publ_section_title

;
Zur Existenz des Ca Fe2 O4-Typs von Verbindungen der Zusammensetzung Na A3+
M4+ O4. Roentgenstrukturanalysen von Na Fe Ti O4 und Na0.7 (Fe, Al)0.7 Ti1.3
O4
;
loop_
_citation_id
_citation_journal_full
_citation_year
_citation_journal_volume
_citation_page_first
_citation_page_last
_citation_journal_id_ASTM
primary 'Journal of Alloys and Compounds' 1993 199 5 8 JALCEU
loop_
_publ_author_name
'Mueller Buschbaum, H.'
'Frerichs, D.'
_cell_length_a 9.2295(19)
_cell_length_b 2.9572(25)
_cell_length_c 11.3181(23)
_cell_angle_alpha 90.
_cell_angle_beta 90.
_cell_angle_gamma 90.
_cell_volume 308.91
_cell_formula_units_Z 4
_symmetry_space_group_name_H-M 'P n m a'
_symmetry_Int_Tables_number 62
_refine_ls_R_factor_all 0.05
loop_
_symmetry_equiv_pos_site_id
_symmetry_equiv_pos_as_xyz
1 'x+1/2, y, -z+1/2'
2 'x, -y+1/2, z'
3 '-x+1/2, y+1/2, z+1/2'
4 '-x, -y, -z'
5 '-x+1/2, -y, z+1/2'
6 '-x, y+1/2, -z'
7 'x+1/2, -y+1/2, -z+1/2'
8 'x, y, z'
loop_
_atom_type_symbol
_atom_type_oxidation_number
Na1+ 1
Fe3+ 3
Al3+ 3
Ti4+ 4
Fe3+ 3
Al3+ 3
Ti4+ 4
O2- -2
loop_
_atom_site_label
_atom_site_type_symbol
_atom_site_symmetry_multiplicity
_atom_site_Wyckoff_symbol
_atom_site_fract_x
_atom_site_fract_y
_atom_site_fract_z
_atom_site_B_iso_or_equiv
_atom_site_occupancy
_atom_site_attached_hydrogens
Na1 Na1+ 4 c 0.3928(6) 0.75 0.1030(4) . 0.7 0
Fe1 Fe3+ 4 c 0.0188(1) 0.25 0.1198(1) 0.63(2) 0.34 0
Al1 Al3+ 4 c 0.0188(1) 0.25 0.1198(4) 0.63(2) 0.04 0
Ti1 Ti4+ 4 c 0.0188(1) 0.25 0.1198(4) 0.63(2) 0.62 0
Fe2 Fe3+ 4 c 0.2301(1) 0.75 0.3381(1) 0.78(2) 0.24 0
Al2 Al3+ 4 c 0.2301(1) 0.75 0.3381(1) 0.78(2) 0.08 0
Ti2 Ti4+ 4 c 0.2301(1) 0.75 0.3381(1) 0.78(2) 0.68 0
O1 O2- 4 c 0.125 0.75 0.186 0.90(6) 1. 0
O2 O2- 4 c 0.129 0.25 0.405 0.96(6) 1. 0
O3 O2- 4 c 0.358 0.25 0.272 0.88(6) 1. 0
O4 O2- 4 c 0.393 0.75 0.459 0.68(5) 1. 0
loop_
_atom_site_aniso_label
_atom_site_aniso_type_symbol
_atom_site_aniso_B_11
_atom_site_aniso_B_22
_atom_site_aniso_B_33
_atom_site_aniso_B_12
_atom_site_aniso_B_13
_atom_site_aniso_B_23
Na1 Na1+ 1.89(7) 18.70(8) 0.84(7) 0 0.37(4) 0
#End of TTdata_73524-ICSD