
#(C) 2019 by FIZ Karlsruhe - Leibniz Institute for Information Infrastructure.  All rights reserved.
data_73612-ICSD
_database_code_ICSD 73612
_audit_creation_date 1994-06-30
_chemical_name_systematic 'Sodium tungsten oxide chloride (1.5/1/2/2)'
_chemical_formula_structural 'Na1.54 W O2 Cl2'
_chemical_formula_sum 'Cl2 Na1.54 O2 W1'
_exptl_crystal_density_diffrn 4.7
_publ_section_title
'Structure of the intercalate Na1.5WO2Cl2 by powder neutron diffraction'
loop_
_citation_id
_citation_journal_full
_citation_year
_citation_journal_volume
_citation_page_first
_citation_page_last
_citation_journal_id_ASTM
primary 'Journal of Materials Chemistry' 1993 3 39 41 JMACEP
loop_
_publ_author_name
'Nowinski, J.L.'
'Abrahams, I.'
'Gibson, V.C.'
'Tavakkoli, K.'
'Bruce, P.G.'
_cell_length_a 3.8809(4)
_cell_length_b 3.8809(4)
_cell_length_c 15.102(2)
_cell_angle_alpha 90.
_cell_angle_beta 90.
_cell_angle_gamma 90.
_cell_volume 227.46
_cell_formula_units_Z 2
_symmetry_space_group_name_H-M 'I 4/m m m'
_symmetry_Int_Tables_number 139
_refine_ls_R_factor_all 0.024
loop_
_symmetry_equiv_pos_site_id
_symmetry_equiv_pos_as_xyz
1 'y, x, -z'
2 '-y, -x, -z'
3 '-y, x, -z'
4 'y, -x, -z'
5 '-x, y, -z'
6 'x, -y, -z'
7 'x, y, -z'
8 '-x, -y, -z'
9 '-y, -x, z'
10 'y, x, z'
11 'y, -x, z'
12 '-y, x, z'
13 'x, -y, z'
14 '-x, y, z'
15 '-x, -y, z'
16 'x, y, z'
17 'y+1/2, x+1/2, -z+1/2'
18 '-y+1/2, -x+1/2, -z+1/2'
19 '-y+1/2, x+1/2, -z+1/2'
20 'y+1/2, -x+1/2, -z+1/2'
21 '-x+1/2, y+1/2, -z+1/2'
22 'x+1/2, -y+1/2, -z+1/2'
23 'x+1/2, y+1/2, -z+1/2'
24 '-x+1/2, -y+1/2, -z+1/2'
25 '-y+1/2, -x+1/2, z+1/2'
26 'y+1/2, x+1/2, z+1/2'
27 'y+1/2, -x+1/2, z+1/2'
28 '-y+1/2, x+1/2, z+1/2'
29 'x+1/2, -y+1/2, z+1/2'
30 '-x+1/2, y+1/2, z+1/2'
31 '-x+1/2, -y+1/2, z+1/2'
32 'x+1/2, y+1/2, z+1/2'
loop_
_atom_type_symbol
_atom_type_oxidation_number
W4+ 4.46
O2- -2
Cl1- -1
Na1+ 1
loop_
_atom_site_label
_atom_site_type_symbol
_atom_site_symmetry_multiplicity
_atom_site_Wyckoff_symbol
_atom_site_fract_x
_atom_site_fract_y
_atom_site_fract_z
_atom_site_B_iso_or_equiv
_atom_site_occupancy
_atom_site_attached_hydrogens
W1 W4+ 2 a 0 0 0 0.006(1) 1. 0
O1 O2- 4 c 0.5 0 0 0.0065(8) 1. 0
Cl1 Cl1- 4 e 0 0 0.8352(1) 0.0191(7) 1. 0
Na1 Na1+ 4 e 0.5 0.5 0.1301(3) 0.023(2) 0.77(2) 0
#End of TTdata_73612-ICSD