
#(C) 2019 by FIZ Karlsruhe - Leibniz Institute for Information Infrastructure.  All rights reserved.
data_73704-ICSD
_database_code_ICSD 73704
_audit_creation_date 1995-01-10
_audit_update_record 2006-04-01
_chemical_name_systematic 'Sodium barium phosphate(V) - HT'
_chemical_formula_structural 'Na Ba (P O4)'
_chemical_formula_sum 'Ba1 Na1 O4 P1'
_chemical_name_structure_type K3Na(SO4)2
_exptl_crystal_density_diffrn 4.27
_publ_section_title
'Polymorphisme et structure cristalline du monophosphate de sodium et baryum'
loop_
_citation_id
_citation_journal_full
_citation_year
_citation_journal_volume
_citation_page_first
_citation_page_last
_citation_journal_id_ASTM
primary 'Materials Research Bulletin' 1992 27 1347 1353 MRBUAC
loop_
_publ_author_name
'Launay, S.'
'Mahe, P.'
'Quarton, M.'
_cell_length_a 5.617(1)
_cell_length_b 5.617(1)
_cell_length_c 7.260(1)
_cell_angle_alpha 90.
_cell_angle_beta 90.
_cell_angle_gamma 120.
_cell_volume 198.37
_cell_formula_units_Z 2
_symmetry_space_group_name_H-M 'P -3 m 1'
_symmetry_Int_Tables_number 164
_refine_ls_R_factor_all 0.057
loop_
_symmetry_equiv_pos_site_id
_symmetry_equiv_pos_as_xyz
1 'x-y, -y, -z'
2 '-x, -x+y, -z'
3 'y, x, -z'
4 'x-y, x, -z'
5 'y, -x+y, -z'
6 '-x, -y, -z'
7 '-x+y, y, z'
8 'x, x-y, z'
9 '-y, -x, z'
10 '-x+y, -x, z'
11 '-y, x-y, z'
12 'x, y, z'
loop_
_atom_type_symbol
_atom_type_oxidation_number
Na1+ 1
Ba2+ 2
Na1+ 1
Ba2+ 2
P5+ 5
O2- -2
loop_
_atom_site_label
_atom_site_type_symbol
_atom_site_symmetry_multiplicity
_atom_site_Wyckoff_symbol
_atom_site_fract_x
_atom_site_fract_y
_atom_site_fract_z
_atom_site_B_iso_or_equiv
_atom_site_occupancy
_atom_site_attached_hydrogens
Na1 Na1+ 1 a 0 0 0 . 1. 0
Ba1 Ba2+ 1 b 0 0 0.5 . 1. 0
Na2 Na1+ 2 d 0.3333 0.6667 0.8418(1) . 0.5 0
Ba2 Ba2+ 2 d 0.3333 0.6667 0.8418(1) . 0.5 0
P1 P5+ 2 d 0.3333 0.6667 0.2820(3) . 1. 0
O1 O2- 2 d 0.3333 0.6667 0.4918(9) . 1. 0
O2 O2- 6 i 0.1852(4) 0.8148(4) 0.2070(5) . 1. 0
loop_
_atom_site_aniso_label
_atom_site_aniso_type_symbol
_atom_site_aniso_U_11
_atom_site_aniso_U_22
_atom_site_aniso_U_33
_atom_site_aniso_U_12
_atom_site_aniso_U_13
_atom_site_aniso_U_23
Na1 Na1+ 0.0174(19) 0.0174(19) 0.0113(22) 0.0087(10) 0 0
Ba1 Ba2+ 0.0215(3) 0.0215(3) 0.0091(3) 0.0107(2) 0 0
Na2 Na1+ 0.0094(2) 0.0094(2) 0.0120(4) 0.0047(1) 0 0
Ba2 Ba2+ 0.0094(2) 0.0094(2) 0.0120(4) 0.0047(1) 0 0
P1 P5+ 0.0055(5) 0.0055(5) 0.0065(7) 0.0027(3) 0 0
O1 O2- 0.0242(25) 0.0242(25) 0.0111(26) 0.0121(13) 0 0
O2 O2- 0.0209(16) 0.0209(16) 0.0219(17) 0.0167(18) -.0025(7) 0.0025(7)
#End of TTdata_73704-ICSD