
#(C) 2019 by FIZ Karlsruhe - Leibniz Institute for Information Infrastructure.  All rights reserved.
data_73827-ICSD
_database_code_ICSD 73827
_audit_creation_date 1995-01-10
_audit_update_record 2008-08-01
_chemical_name_systematic 'Sodium iron vanadium oxide (1/3/9/19)'
_chemical_formula_structural 'Na (Fe3 V9) O19'
_chemical_formula_sum 'Fe3 Na1 O19 V9'
_chemical_name_structure_type M-type-ferrite#BaFe12O19
_exptl_crystal_density_diffrn 4.7
_publ_section_title
'Crystal structure of the magnetoplumbite-type oxide Na Fe3 V9 O19'
loop_
_citation_id
_citation_journal_full
_citation_year
_citation_journal_volume
_citation_page_first
_citation_page_last
_citation_journal_id_ASTM
primary 'Journal of Solid State Chemistry' 1993 104 319 327 JSSCBI
loop_
_publ_author_name
'Kanke, Y.'
'Izumi, F.'
'Morii, Y.'
'Funahashi, S.'
'Kato, K.'
_cell_length_a 5.8388(1)
_cell_length_b 5.8388(1)
_cell_length_c 22.8017(3)
_cell_angle_alpha 90.
_cell_angle_beta 90.
_cell_angle_gamma 120.
_cell_volume 673.2
_cell_formula_units_Z 2
_symmetry_space_group_name_H-M 'P 63/m m c'
_symmetry_Int_Tables_number 194
_refine_ls_R_factor_all 0.035
loop_
_symmetry_equiv_pos_site_id
_symmetry_equiv_pos_as_xyz
1 'x, x-y, -z+1/2'
2 '-x+y, y, -z+1/2'
3 '-y, -x, -z+1/2'
4 '-x+y, -x, -z+1/2'
5 '-y, x-y, -z+1/2'
6 'x, y, -z+1/2'
7 '-x, -x+y, z+1/2'
8 'x-y, -y, z+1/2'
9 'y, x, z+1/2'
10 'x-y, x, z+1/2'
11 'y, -x+y, z+1/2'
12 '-x, -y, z+1/2'
13 '-x, -x+y, -z'
14 'x-y, -y, -z'
15 'y, x, -z'
16 'x-y, x, -z'
17 'y, -x+y, -z'
18 '-x, -y, -z'
19 'x, x-y, z'
20 '-x+y, y, z'
21 '-y, -x, z'
22 '-x+y, -x, z'
23 '-y, x-y, z'
24 'x, y, z'
loop_
_atom_type_symbol
_atom_type_oxidation_number
Fe3+ 3.083
V3+ 3.083
Fe3+ 3.083
V3+ 3.083
Fe3+ 3.083
V3+ 3.083
Fe3+ 3.083
V3+ 3.083
O2- -2
Na1+ 1
loop_
_atom_site_label
_atom_site_type_symbol
_atom_site_symmetry_multiplicity
_atom_site_Wyckoff_symbol
_atom_site_fract_x
_atom_site_fract_y
_atom_site_fract_z
_atom_site_B_iso_or_equiv
_atom_site_occupancy
_atom_site_attached_hydrogens
Fe1 Fe3+ 2 a 0 0 0 0.44(15) 0.07(2) 0
V1 V3+ 2 a 0 0 0 0.44(15) 0.93(2) 0
Fe2 Fe3+ 2 b 0 0 0.25 0.53(15) 0.13(2) 0
V2 V3+ 2 b 0 0 0.25 0.53(15) 0.87(2) 0
Fe3 Fe3+ 4 f 0.3333 0.6667 0.5281(4) 0.65(13) 1. 0
Fe4 Fe3+ 4 f 0.3333 0.6667 0.6933(2) 0.51(11) 0.185(15) 0
V3 V3+ 4 f 0.3333 0.6667 0.6933(2) 0.51(11) 0.815(15) 0
Fe5 Fe3+ 12 k 0.1699(4) 0.3398(8) 0.10993(10) 0.41(6) 0.071 0
V4 V3+ 12 k 0.1699(4) 0.3398(8) 0.10993(10) 0.41(6) 0.929 0
O1 O2- 4 e 0 0 0.1579(6) 0.6(2) 1. 0
O2 O2- 4 f 0.3333 0.6667 0.0565(5) 0.6(2) 1. 0
O3 O2- 6 h 0.1779(10) 0.3558(20) 0.75 0.68(17) 1. 0
O4 O2- 12 k 0.1511(6) 0.3022(12) 0.5551(3) 0.56(13) 1. 0
O5 O2- 12 k 0.4996(6) 0.9992(12) 0.1508(3) 0.51(12) 1. 0
Na1 Na1+ 2 c 0.3333 0.6667 0.25 3.4(8) 1. 0
#End of TTdata_73827-ICSD