
#(C) 2019 by FIZ Karlsruhe - Leibniz Institute for Information Infrastructure.  All rights reserved.
data_73883-ICSD
_database_code_ICSD 73883
_audit_creation_date 1995-01-10
_audit_update_record 2015-02-01
_chemical_name_systematic 'Pentasodium titanium tris(phosphate)'
_chemical_formula_structural 'Na5 Ti (P O4)3'
_chemical_formula_sum 'Na5 O12 P3 Ti1'
_chemical_name_structure_type Na5Ti(PO4)3
_exptl_crystal_density_diffrn 2.89
_cell_measurement_temperature 298.
_publ_section_title 'The structure of Na5Ti(PO4)3'
loop_
_citation_id
_citation_journal_full
_citation_year
_citation_journal_volume
_citation_page_first
_citation_page_last
_citation_journal_id_ASTM
primary 'Journal of Solid State Chemistry' 1993 105 561 566 JSSCBI
loop_
_publ_author_name
'Krimi, S.'
'Mansouri, I.'
'El Jazouli, A.'
'Chaminade, J.P.'
'Gravereau, P.'
'le Flem, G.'
_cell_length_a 9.0607(2)
_cell_length_b 9.0607(2)
_cell_length_c 21.734(1)
_cell_angle_alpha 90.
_cell_angle_beta 90.
_cell_angle_gamma 120.
_cell_volume 1545.23
_cell_formula_units_Z 6
_symmetry_space_group_name_H-M 'R 3 2 H'
_symmetry_Int_Tables_number 155
_refine_ls_R_factor_all 0.022
loop_
_symmetry_equiv_pos_site_id
_symmetry_equiv_pos_as_xyz
1 '-x, -x+y, -z'
2 'x-y, -y, -z'
3 'y, x, -z'
4 '-x+y, -x, z'
5 '-y, x-y, z'
6 'x, y, z'
7 '-x+2/3, -x+y+1/3, -z+1/3'
8 'x-y+2/3, -y+1/3, -z+1/3'
9 'y+2/3, x+1/3, -z+1/3'
10 '-x+y+2/3, -x+1/3, z+1/3'
11 '-y+2/3, x-y+1/3, z+1/3'
12 'x+2/3, y+1/3, z+1/3'
13 '-x+1/3, -x+y+2/3, -z+2/3'
14 'x-y+1/3, -y+2/3, -z+2/3'
15 'y+1/3, x+2/3, -z+2/3'
16 '-x+y+1/3, -x+2/3, z+2/3'
17 '-y+1/3, x-y+2/3, z+2/3'
18 'x+1/3, y+2/3, z+2/3'
loop_
_atom_type_symbol
_atom_type_oxidation_number
Na1+ 1
Ti4+ 4
P5+ 5
O2- -2
Na1+ 1
loop_
_atom_site_label
_atom_site_type_symbol
_atom_site_symmetry_multiplicity
_atom_site_Wyckoff_symbol
_atom_site_fract_x
_atom_site_fract_y
_atom_site_fract_z
_atom_site_B_iso_or_equiv
_atom_site_occupancy
_atom_site_attached_hydrogens
Na1 Na1+ 6 c 0.3333 0.6667 0.0683(1) 1.39(4) 1. 0
Ti1 Ti4+ 6 c 0 0 0.09952(3) 0.53(2) 1. 0
P1 P5+ 9 d 0.7200(1) 0 0 0.61(3) 1. 0
P2 P5+ 9 e 0.3285(1) 0 0.5 0.69(3) 1. 0
O1 O2- 18 f 0.4493(2) 0.2925(2) 0.0134(1) 1.19(7) 1. 0
O2 O2- 18 f 0.1548(2) 0.1945(2) 0.0549(1) 1.91(8) 1. 0
O3 O2- 18 f 0.5474(2) 0.6215(2) 0.1113(1) 1.83(8) 1. 0
O4 O2- 18 f 0.1815(2) 0.0271(2) 0.1555(1) 1.33(7) 1. 0
Na2 Na1+ 6 c 0 0 0.2505(1) 1.61(4) 1. 0
Na3 Na1+ 9 d 0.3875(2) 0 0 1.45(5) 1. 0
Na4 Na1+ 9 e 0.6788(4) 0 0.5 1.51(5) 0.533(11) 0
Na5 Na1+ 18 f 0.6789(7) 0.0021(6) 0.5202(4) 1.51(5) 0.233(6) 0
#End of TTdata_73883-ICSD