
#(C) 2019 by FIZ Karlsruhe - Leibniz Institute for Information Infrastructure.  All rights reserved.
data_73882-ICSD
_database_code_ICSD 73882
_audit_creation_date 1995-01-10
_chemical_name_systematic 'Sodium calcium iron oxide (0.9/0.2/2.9/5)'
_chemical_formula_structural 'Na0.9 Ca0.2 Fe2.9 O5'
_chemical_formula_sum 'Ca0.2 Fe2.9 Na0.9 O5'
_chemical_name_structure_type NaFe3O5
_exptl_crystal_density_diffrn 4.66
_publ_section_title 'Ca0.2Na0.9Fe2.9O5: a new Me4O5 structure type'
loop_
_citation_id
_citation_journal_full
_citation_year
_citation_journal_volume
_citation_page_first
_citation_page_last
_citation_journal_id_ASTM
primary 'Journal of Solid State Chemistry' 1993 105 528 534 JSSCBI
loop_
_publ_author_name
'Mumme, W.G.'
_cell_length_a 10.29(1)
_cell_length_b 12.46(1)
_cell_length_c 3.01(1)
_cell_angle_alpha 90.
_cell_angle_beta 90.
_cell_angle_gamma 90.
_cell_volume 385.92
_cell_formula_units_Z 4
_symmetry_space_group_name_H-M 'P n n m'
_symmetry_Int_Tables_number 58
_refine_ls_R_factor_all 0.059
loop_
_symmetry_equiv_pos_site_id
_symmetry_equiv_pos_as_xyz
1 'x+1/2, -y+1/2, z+1/2'
2 '-x+1/2, y+1/2, z+1/2'
3 'x, y, -z'
4 '-x, -y, -z'
5 '-x+1/2, y+1/2, -z+1/2'
6 'x+1/2, -y+1/2, -z+1/2'
7 '-x, -y, z'
8 'x, y, z'
loop_
_atom_type_symbol
_atom_type_oxidation_number
Fe3+ 3
Ca2+ 2
Fe3+ 3
Na1+ 1
Ca2+ 2
O2- -2
loop_
_atom_site_label
_atom_site_type_symbol
_atom_site_symmetry_multiplicity
_atom_site_Wyckoff_symbol
_atom_site_fract_x
_atom_site_fract_y
_atom_site_fract_z
_atom_site_B_iso_or_equiv
_atom_site_occupancy
_atom_site_attached_hydrogens
Fe1 Fe3+ 4 g 0.2193(4) 0.1156(3) 0.5 1.34(11) 1. 0
Fe2 Fe3+ 4 g 0.2386(5) 0.3628(3) 0 1.71(13) 0.9 0
Ca1 Ca2+ 4 g 0.2386(5) 0.3628(3) 0 1.71(13) 0.1 0
Fe3 Fe3+ 2 a 0 0 0 1.71(18) 1. 0
Fe4 Fe3+ 2 d 0.5 0 0 1.88(20) 1. 0
Na1 Na1+ 4 g -.0233(10) 0.2553(11) 0.5 3.97(27) 0.9 0
Ca2 Ca2+ 4 g -.0233(10) 0.2553(11) 0.5 3.97(27) 0.1 0
O1 O2- 4 g 0.0893(14) 0.1386(14) 0 2.26(41) 1. 0
O2 O2- 4 g 0.0702(16) 0.4031(13) 0 3.77(41) 1. 0
O3 O2- 4 g 0.3308(15) 0.0779(11) 0 1.27(38) 1. 0
O4 O2- 4 g 0.2706(16) 0.2701(11) 0.5 2.00(38) 1. 0
O5 O2- 4 g 0.3748(14) 0.4603(13) 0 1.16(35) 1. 0
#End of TTdata_73882-ICSD