
#(C) 2019 by FIZ Karlsruhe - Leibniz Institute for Information Infrastructure.  All rights reserved.
data_73954-ICSD
_database_code_ICSD 73954
_audit_creation_date 1995-01-10
_chemical_name_systematic 'Sodium hydrogen bis(phosphatozincate)'
_chemical_formula_structural 'Na H (Zn P O4)2'
_chemical_formula_sum 'H1 Na1 O8 P2 Zn2'
_chemical_name_structure_type RbZn2H(PO4)2
_exptl_crystal_density_diffrn 3.15
_cell_measurement_temperature 298.
_publ_section_title

;
The low-temperature synthesis and characterization of two layered materials
containing 3-ring groupings: NaH(ZnPO4)2 and CsH(ZnPO4)2
;
loop_
_citation_id
_citation_journal_full
_citation_year
_citation_journal_volume
_citation_page_first
_citation_page_last
_citation_journal_id_ASTM
primary 'Journal of Solid State Chemistry' 1993 107 285 295 JSSCBI
loop_
_publ_author_name
'Nenoff, T.M.'
'Harrison, W.T.A.'
'Gier, T.E.'
'Calabrese, J.C.'
'Stucky, G.D.'
_cell_length_a 8.640(2)
_cell_length_b 8.817(3)
_cell_length_c 5.126(9)
_cell_angle_alpha 100.401(8)
_cell_angle_beta 105.684(8)
_cell_angle_gamma 96.924(9)
_cell_volume 363.81
_cell_formula_units_Z 2
_symmetry_space_group_name_H-M 'P -1'
_symmetry_Int_Tables_number 2
_refine_ls_R_factor_all 0.052
loop_
_symmetry_equiv_pos_site_id
_symmetry_equiv_pos_as_xyz
1 '-x, -y, -z'
2 'x, y, z'
loop_
_atom_type_symbol
_atom_type_oxidation_number
Zn2+ 2
P5+ 5
Na1+ 1
O2- -2
H1+ 1
loop_
_atom_site_label
_atom_site_type_symbol
_atom_site_symmetry_multiplicity
_atom_site_Wyckoff_symbol
_atom_site_fract_x
_atom_site_fract_y
_atom_site_fract_z
_atom_site_B_iso_or_equiv
_atom_site_occupancy
_atom_site_attached_hydrogens
Zn1 Zn2+ 2 i 0.6174(1) 0.3931(1) 0.3303(2) . 1. 0
Zn2 Zn2+ 2 i 0.8880(1) 0.2405(1) 0.7787(2) . 1. 0
P1 P5+ 2 i 0.2505(2) 0.4397(2) 0.0912(4) . 1. 0
P2 P5+ 2 i 0.7556(2) 0.0816(2) 0.1610(4) . 1. 0
Na1 Na1+ 2 i 0.1862(4) 0.1885(4) 0.4091(7) . 1. 0
O1 O2- 2 i 0.3843(6) 0.3721(7) 0.275(1) . 1. 0
O2 O2- 2 i 0.0890(6) 0.3361(7) 0.058(1) . 1. 0
O3 O2- 2 i 0.7261(7) 0.5502(7) 0.190(1) . 1. 0
O4 O2- 2 i 0.7411(6) 0.3937(6) 0.729(1) . 1. 0
O5 O2- 2 i 0.9042(6) 0.1505(7) 0.412(1) . 1. 0
O6 O2- 2 i 0.8053(7) 0.0544(7) 0.895(1) . 1. 0
O7 O2- 2 i 0.6206(6) 0.1807(7) 0.140(1) . 1. 0
O8 O2- 2 i 0.6857(6) -.0833(6) 0.206(1) . 1. 0
H1 H1+ 2 i 0.5493 0.8733 0.05206 0.02 1. 0
loop_
_atom_site_aniso_label
_atom_site_aniso_type_symbol
_atom_site_aniso_U_11
_atom_site_aniso_U_22
_atom_site_aniso_U_33
_atom_site_aniso_U_12
_atom_site_aniso_U_13
_atom_site_aniso_U_23
Zn1 Zn2+ 0.0102(4) 0.0206(4) 0.0145(4) 0.0018(3) 0.0043(3) 0.0037(3)
Zn2 Zn2+ 0.0109(4) 0.0209(4) 0.0132(4) 0.0016(3) 0.0040(3) 0.0023(3)
P1 P5+ 0.0089(7) 0.0175(8) 0.0123(7) 0.0004(6) 0.0043(6) 0.0022(6)
P2 P5+ 0.0109(7) 0.0173(8) 0.0128(7) 0.0006(6) 0.0050(6) 0.0017(6)
Na1 Na1+ 0.020(1) 0.032(2) 0.023(2) 0.004(1) 0.009(1) 0.010(1)
O1 O2- 0.008(2) 0.027(3) 0.019(2) 0.003(2) 0.003(2) 0.006(2)
O2 O2- 0.010(2) 0.031(3) 0.017(2) -.003(2) 0.002(2) 0.006(2)
O3 O2- 0.029(3) 0.024(3) 0.013(2) -.002(2) 0.011(2) 0.003(2)
O4 O2- 0.015(2) 0.022(3) 0.013(2) 0.004(2) 0.003(2) 0.003(2)
O5 O2- 0.014(2) 0.031(3) 0.013(2) 0.000(2) 0.007(2) -.001(2)
O6 O2- 0.022(3) 0.024(3) 0.015(2) 0.001(2) 0.009(2) 0.003(2)
O7 O2- 0.011(2) 0.025(3) 0.023(3) 0.005(2) 0.005(2) 0.004(2)
O8 O2- 0.017(2) 0.022(3) 0.018(2) 0.000(2) 0.005(2) 0.006(2)
#End of TTdata_73954-ICSD