
#(C) 2019 by FIZ Karlsruhe - Leibniz Institute for Information Infrastructure.  All rights reserved.
data_73977-ICSD
_database_code_ICSD 73977
_audit_creation_date 1995-01-10
_chemical_name_systematic
'Sodium barium cobalt lithium fluoride (3.3/.7/3.3/.7/12)'
_chemical_formula_structural 'Na3 (Na0.33 Ba0.67) (Co0.833 Li0.167)4 F12'
_chemical_formula_sum 'Ba0.67 Co3.332 F12 Li0.668 Na3.33'
_chemical_name_structure_type Na3(Ba,Na)(Co,Na)4F12
_exptl_crystal_density_diffrn 4.02
_publ_section_title

;
The new series of fluoride perovskites Na4BaxM4-xF12 (M=Mn,Fe,Co) and
Na4-xLixBaxCo4-xF12: homogeneity range and crystal and magnetic structures
;
loop_
_citation_id
_citation_journal_full
_citation_year
_citation_journal_volume
_citation_page_first
_citation_page_last
_citation_journal_id_ASTM
primary 'Journal of Solid State Chemistry' 1993 107 387 396 JSSCBI
loop_
_publ_author_name
'Ducau, M.'
'Roisnel, T.'
'Darriet, J.'
_cell_length_a 7.9006(1)
_cell_length_b 7.9006(1)
_cell_length_c 7.9006(1)
_cell_angle_alpha 90.
_cell_angle_beta 90.
_cell_angle_gamma 90.
_cell_volume 493.15
_cell_formula_units_Z 2
_symmetry_space_group_name_H-M 'I m -3'
_symmetry_Int_Tables_number 204
_refine_ls_R_factor_all 0.082
loop_
_symmetry_equiv_pos_site_id
_symmetry_equiv_pos_as_xyz
1 '-z, x, y'
2 'z, x, -y'
3 'z, -x, y'
4 '-z, -x, -y'
5 'y, -z, x'
6 '-y, z, x'
7 'y, z, -x'
8 '-y, -z, -x'
9 'x, y, -z'
10 'x, -y, z'
11 '-x, y, z'
12 '-x, -y, -z'
13 'z, -x, -y'
14 '-z, -x, y'
15 '-z, x, -y'
16 'z, x, y'
17 '-y, z, -x'
18 'y, -z, -x'
19 '-y, -z, x'
20 'y, z, x'
21 '-x, -y, z'
22 '-x, y, -z'
23 'x, -y, -z'
24 'x, y, z'
25 '-z+1/2, x+1/2, y+1/2'
26 'z+1/2, x+1/2, -y+1/2'
27 'z+1/2, -x+1/2, y+1/2'
28 '-z+1/2, -x+1/2, -y+1/2'
29 'y+1/2, -z+1/2, x+1/2'
30 '-y+1/2, z+1/2, x+1/2'
31 'y+1/2, z+1/2, -x+1/2'
32 '-y+1/2, -z+1/2, -x+1/2'
33 'x+1/2, y+1/2, -z+1/2'
34 'x+1/2, -y+1/2, z+1/2'
35 '-x+1/2, y+1/2, z+1/2'
36 '-x+1/2, -y+1/2, -z+1/2'
37 'z+1/2, -x+1/2, -y+1/2'
38 '-z+1/2, -x+1/2, y+1/2'
39 '-z+1/2, x+1/2, -y+1/2'
40 'z+1/2, x+1/2, y+1/2'
41 '-y+1/2, z+1/2, -x+1/2'
42 'y+1/2, -z+1/2, -x+1/2'
43 '-y+1/2, -z+1/2, x+1/2'
44 'y+1/2, z+1/2, x+1/2'
45 '-x+1/2, -y+1/2, z+1/2'
46 '-x+1/2, y+1/2, -z+1/2'
47 'x+1/2, -y+1/2, -z+1/2'
48 'x+1/2, y+1/2, z+1/2'
loop_
_atom_type_symbol
_atom_type_oxidation_number
Na1+ 1
Ba2+ 2
Co2+ 2
Li1+ 1
F1- -1
loop_
_atom_site_label
_atom_site_type_symbol
_atom_site_symmetry_multiplicity
_atom_site_Wyckoff_symbol
_atom_site_fract_x
_atom_site_fract_y
_atom_site_fract_z
_atom_site_B_iso_or_equiv
_atom_site_occupancy
_atom_site_attached_hydrogens
Na1 Na1+ 12 e 0.9468(8) 0 0.5 0.5 0.5 0
Na2 Na1+ 2 a 0 0 0 0.97 0.333 0
Ba1 Ba2+ 2 a 0 0 0 0.97 0.667 0
Co1 Co2+ 8 c 0.25 0.25 0.25 0.27 0.833 0
Li1 Li1+ 8 c 0.25 0.25 0.25 0.27 0.167 0
F1 F1- 24 g 0 0.2987(4) 0.2076(4) 1.59 1. 0
#End of TTdata_73977-ICSD