
#(C) 2019 by FIZ Karlsruhe - Leibniz Institute for Information Infrastructure.  All rights reserved.
data_74042-ICSD
_database_code_ICSD 74042
_audit_creation_date 1995-01-10
_chemical_name_systematic 'Disodium zinc phosphate hydroxide heptahydrate'
_chemical_formula_structural 'Na2 Zn (P O4) (O H) (H2 O)7'
_chemical_formula_sum 'H15 Na2 O12 P1 Zn1'
_exptl_crystal_density_diffrn 2.05
_cell_measurement_temperature 298.
_publ_section_title

;
Tetrahedral-atom 3-ring groupings in 1-dimensional inorganic chains:
Be2AsO4OH.4H2O and Na2ZnPO4OH.7H2O
;
loop_
_citation_id
_citation_journal_full
_citation_year
_citation_journal_volume
_citation_page_first
_citation_page_last
_citation_journal_id_ASTM
primary 'Inorganic Chemistry' 1993 32 2437 2441 INOCAJ
loop_
_publ_author_name
'Harrison, W.T.A.'
'Nenoff, T.M.'
'Gier, T.E.'
'Stucky, G.D.'
_cell_length_a 6.4212(6)
_cell_length_b 21.612(2)
_cell_length_c 8.6813(6)
_cell_angle_alpha 90.
_cell_angle_beta 109.899(3)
_cell_angle_gamma 90.
_cell_volume 1132.82
_cell_formula_units_Z 4
_symmetry_space_group_name_H-M 'P 1 21/a 1'
_symmetry_Int_Tables_number 14
_refine_ls_R_factor_all 0.058
loop_
_symmetry_equiv_pos_site_id
_symmetry_equiv_pos_as_xyz
1 'x+1/2, -y+1/2, z'
2 '-x, -y, -z'
3 '-x+1/2, y+1/2, -z'
4 'x, y, z'
loop_
_atom_type_symbol
_atom_type_oxidation_number
Na1+ 1
Zn2+ 2
P5+ 5
O2- -2
H1+ 1
loop_
_atom_site_label
_atom_site_type_symbol
_atom_site_symmetry_multiplicity
_atom_site_Wyckoff_symbol
_atom_site_fract_x
_atom_site_fract_y
_atom_site_fract_z
_atom_site_B_iso_or_equiv
_atom_site_occupancy
_atom_site_attached_hydrogens
Na1 Na1+ 4 e 0.0339(4) 0.1927(1) 0.2686(3) . 1. 0
Na2 Na1+ 4 e 0.0230(4) 0.0289(1) 0.1917(3) . 1. 0
Zn1 Zn2+ 4 e 0.49499(9) 0.74442(3) 0.36474(7) . 1. 0
P1 P5+ 4 e 0.6361(2) 0.85568(5) 0.1892(2) . 1. 0
O1 O2- 4 e 0.3101(5) 0.7627(2) 0.4975(4) . 1. 0
O2 O2- 4 e 0.4805(6) 0.8005(2) 0.1854(4) . 1. 0
O3 O2- 4 e 0.3785(6) 0.6624(2) 0.2861(5) . 1. 0
O4 O2- 4 e 0.5691(7) 0.9113(2) 0.2705(5) . 1. 0
O5 O2- 4 e 0.6194(7) 0.8703(2) 0.0128(4) . 1. 0
O6 O2- 4 e 0.2538(7) 0.2386(2) 0.1150(5) . 1. 0
O7 O2- 4 e 0.9450(7) 0.1244(2) 0.0297(5) . 1. 0
O8 O2- 4 e 0.6827(8) 0.1396(2) 0.2882(5) . 1. 0
O9 O2- 4 e 0.7909(7) 0.0190(2) 0.3545(5) . 1. 0
O10 O2- 4 e 0.2716(7) 0.0102(2) 0.0434(5) . 1. 0
O11 O2- 4 e 0.2712(7) 0.1049(2) 0.3844(5) . 1. 0
O12 O2- 4 e 0.8185(7) 0.0650(2) 0.6633(5) . 1. 0
H1 H1+ 4 e 0.31(1) 0.203(2) 0.081(7) 0.066(6) 1. 0
H2 H1+ 4 e 0.15(1) 0.258(3) 0.021(5) 0.066(6) 1. 0
H3 H1+ 4 e 0.065(7) 0.124(4) -.010(8) 0.066(6) 1. 0
H4 H1+ 4 e 0.829(8) 0.148(3) -.043(7) 0.066(6) 1. 0
H5 H1+ 4 e 0.58(1) 0.139(3) 0.179(4) 0.066(6) 1. 0
H6 H1+ 4 e 0.72(1) 0.098(1) 0.325(7) 0.066(6) 1. 0
H7 H1+ 4 e 0.81(1) 0.028(3) 0.466(3) 0.066(6) 1. 0
H8 H1+ 4 e 0.72(1) -.019(2) 0.326(7) 0.066(6) 1. 0
H9 H1+ 4 e 0.338(9) 0.049(1) 0.042(9) 0.066(6) 1. 0
H10 H1+ 4 e 0.383(7) -.018(2) 0.102(9) 0.066(6) 1. 0
H11 H1+ 4 e 0.396(9) 0.114(4) 0.354(7) 0.066(6) 1. 0
H12 H1+ 4 e 0.318(9) 0.100(4) 0.500(2) 0.066(6) 1. 0
H13 H1+ 4 e 0.924(8) 0.098(2) 0.697(9) 0.066(6) 1. 0
H14 H1+ 4 e 0.680(5) 0.080(3) 0.67(1) 0.066(6) 1. 0
H15 H1+ 4 e 0.67(1) 0.201(2) 0.439(8) 0.066(6) 1. 0
loop_
_atom_site_aniso_label
_atom_site_aniso_type_symbol
_atom_site_aniso_U_11
_atom_site_aniso_U_22
_atom_site_aniso_U_33
_atom_site_aniso_U_12
_atom_site_aniso_U_13
_atom_site_aniso_U_23
Na1 Na1+ 0.035(1) 0.031(1) 0.030(1) 0.0020(9) 0.0092(9) -.0017(9)
Na2 Na1+ 0.040(1) 0.034(1) 0.032(1) -.0025(9) 0.016(1) -.0008(9)
Zn1 Zn2+ 0.0194(2) 0.0254(3) 0.0238(2) -.0014(2) 0.0082(2) 0.0005(2)
P1 P5+ 0.0217(5) 0.0185(5) 0.0222(5) -.0001(4) 0.0074(4) 0.0004(4)
O1 O2- 0.018(1) 0.031(2) 0.023(2) -.001(1) 0.007(1) -.004(1)
O2 O2- 0.027(2) 0.030(2) 0.028(2) -.008(1) 0.006(1) 0.004(1)
O3 O2- 0.021(2) 0.025(2) 0.043(2) -.002(1) 0.006(1) -.005(2)
O4 O2- 0.031(2) 0.031(2) 0.039(2) 0.001(2) 0.017(2) -.006(2)
O5 O2- 0.043(2) 0.031(2) 0.024(2) -.007(2) 0.015(2) 0.002(1)
O6 O2- 0.031(2) 0.032(2) 0.030(2) -.001(2) 0.009(1) -.002(2)
O7 O2- 0.037(2) 0.040(2) 0.038(2) -.001(2) 0.015(2) -.003(2)
O8 O2- 0.056(3) 0.031(2) 0.028(2) 0.008(2) 0.007(2) 0.001(2)
O9 O2- 0.045(2) 0.031(2) 0.031(2) -.001(2) 0.014(2) -.001(2)
O10 O2- 0.032(2) 0.033(2) 0.039(2) -.001(2) 0.011(2) 0.004(2)
O11 O2- 0.040(2) 0.043(2) 0.031(2) -.002(2) 0.010(2) -.001(2)
O12 O2- 0.035(2) 0.030(2) 0.043(2) -.002(2) 0.018(2) -.005(2)
#End of TTdata_74042-ICSD