
#(C) 2019 by FIZ Karlsruhe - Leibniz Institute for Information Infrastructure.  All rights reserved.
data_74206-ICSD
_database_code_ICSD 74206
_audit_creation_date 1995-01-10
_audit_update_record 2007-04-01
_chemical_name_systematic 'Trisodium hexafluoroaluminate - alpha'
_chemical_formula_structural 'Na3 (Al F6)'
_chemical_formula_sum 'Al1 F6 Na3'
_chemical_name_structure_type Perovskite-Na3AlF6
_chemical_name_mineral Cryolite
_exptl_crystal_density_diffrn 2.82
_cell_measurement_temperature 820.
_publ_section_title

;
Ferroelastic phase transition in cryolite, Na3 Al F6, a mixed fluoride
perovskite: high temperature single crystal X-ray diffraction study and
symmetry analysis of the transition mechanism
;
loop_
_citation_id
_citation_journal_full
_citation_year
_citation_journal_volume
_citation_page_first
_citation_page_last
_citation_journal_id_ASTM
primary 'Physics and Chemistry of Minerals' 1993 19 528 544 PCMIDU
loop_
_publ_author_name
'Yang, H.-X.'
'Ghose, S.'
'Hatch, D.M.'
_cell_length_a 5.5443(8)
_cell_length_b 5.6391(5)
_cell_length_c 7.9127(8)
_cell_angle_alpha 90.
_cell_angle_beta 90.008(3)
_cell_angle_gamma 90.
_cell_volume 247.39
_cell_formula_units_Z 2
_symmetry_space_group_name_H-M 'P 1 21/n 1'
_symmetry_Int_Tables_number 14
_refine_ls_R_factor_all 0.049
loop_
_symmetry_equiv_pos_site_id
_symmetry_equiv_pos_as_xyz
1 '-x+1/2, y+1/2, -z+1/2'
2 '-x, -y, -z'
3 'x+1/2, -y+1/2, z+1/2'
4 'x, y, z'
loop_
_atom_type_symbol
_atom_type_oxidation_number
Al3+ 3
Na1+ 1
F1- -1
loop_
_atom_site_label
_atom_site_type_symbol
_atom_site_symmetry_multiplicity
_atom_site_Wyckoff_symbol
_atom_site_fract_x
_atom_site_fract_y
_atom_site_fract_z
_atom_site_B_iso_or_equiv
_atom_site_occupancy
_atom_site_attached_hydrogens
Al1 Al3+ 2 a 0 0 0 . 1. 0
Na1 Na1+ 2 b 0 0 0.5 . 1. 0
Na2 Na1+ 4 e -.0074(5) 0.4657(5) 0.2511(3) . 1. 0
F1 F1- 4 e 0.0873(5) 0.0331(7) 0.2177(3) . 1. 0
F2 F1- 4 e 0.2341(5) 0.3247(5) 0.5399(4) . 1. 0
F3 F1- 4 e 0.1680(5) 0.2642(5) 0.9486(5) . 1. 0
loop_
_atom_site_aniso_label
_atom_site_aniso_type_symbol
_atom_site_aniso_beta_11
_atom_site_aniso_beta_22
_atom_site_aniso_beta_33
_atom_site_aniso_beta_12
_atom_site_aniso_beta_13
_atom_site_aniso_beta_23
Al1 Al3+ 0.02405(76) 0.02436(79) 0.02194(74) 0.00052(71) -.00013(55) -.00005(73)
Na1 Na1+ 0.0438(15) 0.0412(15) 0.0403(14) -0.0066(14) -0.0004(11) 0.0007(14)
Na2 Na1+ 0.0623(13) 0.0629(15) 0.0653(14) -0.0078(13) 0.0009(10) 0.0024(15)
F1 F1- 0.0706(21) 0.0915(27) 0.0286(14) 0.0034(21) -0.0093(13) -0.0079(18)
F2 F1- 0.0484(17) 0.0519(18) 0.0669(22) -0.0231(15) 0.0109(15) -0.0029(16)
F3 F1- 0.0559(18) 0.0453(17) 0.0789(25) -0.0171(15) 0.0013(16) 0.0148(18)
#End of TTdata_74206-ICSD