
#(C) 2019 by FIZ Karlsruhe - Leibniz Institute for Information Infrastructure.  All rights reserved.
data_74203-ICSD
_database_code_ICSD 74203
_audit_creation_date 1995-01-10
_audit_update_record 2006-04-01
_chemical_name_systematic 'Trisodium hexafluoroaluminate - alpha'
_chemical_formula_structural 'Na3 (Al F6)'
_chemical_formula_sum 'Al1 F6 Na3'
_chemical_name_structure_type Perovskite-Na3AlF6
_chemical_name_mineral Cryolite
_exptl_crystal_density_diffrn 2.89
_cell_measurement_temperature 573.
_publ_section_title

;
Ferroelastic phase transition in cryolite, Na3 Al F6, a mixed fluoride
perovskite: high temperature single crystal X-ray diffraction study and
symmetry analysis of the transition mechanism
;
loop_
_citation_id
_citation_journal_full
_citation_year
_citation_journal_volume
_citation_page_first
_citation_page_last
_citation_journal_id_ASTM
primary 'Physics and Chemistry of Minerals' 1993 19 528 544 PCMIDU
loop_
_publ_author_name
'Yang, H.-X.'
'Ghose, S.'
'Hatch, D.M.'
_cell_length_a 5.4766(3)
_cell_length_b 5.6227(3)
_cell_length_c 7.8461(4)
_cell_angle_alpha 90.
_cell_angle_beta 90.089(2)
_cell_angle_gamma 90.
_cell_volume 241.61
_cell_formula_units_Z 2
_symmetry_space_group_name_H-M 'P 1 21/n 1'
_symmetry_Int_Tables_number 14
_refine_ls_R_factor_all 0.045
loop_
_symmetry_equiv_pos_site_id
_symmetry_equiv_pos_as_xyz
1 '-x+1/2, y+1/2, -z+1/2'
2 '-x, -y, -z'
3 'x+1/2, -y+1/2, z+1/2'
4 'x, y, z'
loop_
_atom_type_symbol
_atom_type_oxidation_number
Al3+ 3
Na1+ 1
F1- -1
loop_
_atom_site_label
_atom_site_type_symbol
_atom_site_symmetry_multiplicity
_atom_site_Wyckoff_symbol
_atom_site_fract_x
_atom_site_fract_y
_atom_site_fract_z
_atom_site_B_iso_or_equiv
_atom_site_occupancy
_atom_site_attached_hydrogens
Al1 Al3+ 2 a 0 0 0 . 1. 0
Na1 Na1+ 2 b 0 0 0.5 . 1. 0
Na2 Na1+ 4 e -.0096(4) 0.4542(3) 0.2519(2) . 1. 0
F1 F1- 4 e 0.0967(4) 0.0418(4) 0.2182(3) . 1. 0
F2 F1- 4 e 0.2299(4) 0.3264(4) 0.5433(3) . 1. 0
F3 F1- 4 e 0.1640(4) 0.2680(4) 0.9413(3) . 1. 0
loop_
_atom_site_aniso_label
_atom_site_aniso_type_symbol
_atom_site_aniso_beta_11
_atom_site_aniso_beta_22
_atom_site_aniso_beta_33
_atom_site_aniso_beta_12
_atom_site_aniso_beta_13
_atom_site_aniso_beta_23
Al1 Al3+ 0.01613(61) 0.01573(63) 0.01457(59) -.00051(53) -.00011(46) -.00040(54)
Na1 Na1+ 0.0280(10) 0.0270(11) 0.02514(97) -.00450(94) -.00108(79) 0.00241(95)
Na2 Na1+ 0.03989(88) 0.03667(98) 0.04245(93) -.00621(84) -.00067(71) 0.00024(93)
F1 F1- 0.0417(13) 0.0468(16) 0.01739(94) 0.0015(11) -.00569(88) -0.0051(10)
F2 F1- 0.0291(11) 0.0335(13) 0.0401(14) -.01292(98) 0.00537(99) -0.0004(11)
F3 F1- 0.0332(12) 0.0278(12) 0.0485(15) -.01068(97) -0.0000(11) 0.0077(11)
#End of TTdata_74203-ICSD