
#(C) 2019 by FIZ Karlsruhe - Leibniz Institute for Information Infrastructure.  All rights reserved.
data_74208-ICSD
_database_code_ICSD 74208
_audit_creation_date 1995-01-10
_audit_update_record 2006-04-01
_chemical_name_systematic 'Trisodium hexafluoroaluminate - alpha'
_chemical_formula_structural 'Na3 (Al F6)'
_chemical_formula_sum 'Al1 F6 Na3'
_chemical_name_structure_type Perovskite-Na3AlF6
_chemical_name_mineral Cryolite
_exptl_crystal_density_diffrn 2.8
_cell_measurement_temperature 860.
_publ_section_title

;
Ferroelastic phase transition in cryolite, Na3 Al F6, a mixed fluoride
perovskite: high temperature single crystal X-ray diffraction study and
symmetry analysis of the transition mechanism
;
loop_
_citation_id
_citation_journal_full
_citation_year
_citation_journal_volume
_citation_page_first
_citation_page_last
_citation_journal_id_ASTM
primary 'Physics and Chemistry of Minerals' 1993 19 528 544 PCMIDU
loop_
_publ_author_name
'Yang, H.-X.'
'Ghose, S.'
'Hatch, D.M.'
_cell_length_a 5.5659(7)
_cell_length_b 5.6420(4)
_cell_length_c 7.9322(7)
_cell_angle_alpha 90.
_cell_angle_beta 89.989(3)
_cell_angle_gamma 90.
_cell_volume 249.09
_cell_formula_units_Z 2
_symmetry_space_group_name_H-M 'P 1 21/n 1'
_symmetry_Int_Tables_number 14
_refine_ls_R_factor_all 0.051
loop_
_symmetry_equiv_pos_site_id
_symmetry_equiv_pos_as_xyz
1 '-x+1/2, y+1/2, -z+1/2'
2 '-x, -y, -z'
3 'x+1/2, -y+1/2, z+1/2'
4 'x, y, z'
loop_
_atom_type_symbol
_atom_type_oxidation_number
Al3+ 3
Na1+ 1
F1- -1
loop_
_atom_site_label
_atom_site_type_symbol
_atom_site_symmetry_multiplicity
_atom_site_Wyckoff_symbol
_atom_site_fract_x
_atom_site_fract_y
_atom_site_fract_z
_atom_site_B_iso_or_equiv
_atom_site_occupancy
_atom_site_attached_hydrogens
Al1 Al3+ 2 a 0 0 0 . 1. 0
Na1 Na1+ 2 b 0 0 0.5 . 1. 0
Na2 Na1+ 4 e -.0065(5) 0.4694(6) 0.2520(4) . 1. 0
F1 F1- 4 e 0.0838(7) 0.0313(9) 0.2170(4) . 1. 0
F2 F1- 4 e 0.2356(6) 0.3231(7) 0.5387(6) . 1. 0
F3 F1- 4 e 0.1687(7) 0.2638(6) 0.9507(6) . 1. 0
loop_
_atom_site_aniso_label
_atom_site_aniso_type_symbol
_atom_site_aniso_beta_11
_atom_site_aniso_beta_22
_atom_site_aniso_beta_33
_atom_site_aniso_beta_12
_atom_site_aniso_beta_13
_atom_site_aniso_beta_23
Al1 Al3+ 0.02525(90) 0.02643(91) 0.02471(87) 0.00104(88) -.00011(64) 0.00038(91)
Na1 Na1+ 0.0471(17) 0.0434(17) 0.0439(16) -0.0040(16) -0.0016(13) 0.0010(17)
Na2 Na1+ 0.0668(15) 0.0704(19) 0.0708(17) -0.0088(16) -0.0009(13) 0.0024(18)
F1 F1- 0.0778(27) 0.0997(33) 0.0328(17) 0.0031(26) -0.0119(16) -0.0086(23)
F2 F1- 0.0529(20) 0.0587(23) 0.0793(29) -0.0258(18) 0.0133(20) -0.0019(21)
F3 F1- 0.0635(23) 0.0481(21) 0.0930(32) -0.0201(19) 0.0003(22) 0.0199(22)
#End of TTdata_74208-ICSD