
#(C) 2019 by FIZ Karlsruhe - Leibniz Institute for Information Infrastructure.  All rights reserved.
data_74205-ICSD
_database_code_ICSD 74205
_audit_creation_date 1995-01-10
_audit_update_record 2006-04-01
_chemical_name_systematic 'Trisodium hexafluoroaluminate - alpha'
_chemical_formula_structural 'Na3 (Al F6)'
_chemical_formula_sum 'Al1 F6 Na3'
_chemical_name_structure_type Perovskite-Na3AlF6
_chemical_name_mineral Cryolite
_exptl_crystal_density_diffrn 2.82
_cell_measurement_temperature 800.
_publ_section_title

;
Ferroelastic phase transition in cryolite, Na3 Al F6, a mixed fluoride
perovskite: high temperature single crystal X-ray diffraction study and
symmetry analysis of the transition mechanism
;
loop_
_citation_id
_citation_journal_full
_citation_year
_citation_journal_volume
_citation_page_first
_citation_page_last
_citation_journal_id_ASTM
primary 'Physics and Chemistry of Minerals' 1993 19 528 544 PCMIDU
loop_
_publ_author_name
'Yang, H.-X.'
'Ghose, S.'
'Hatch, D.M.'
_cell_length_a 5.5395(5)
_cell_length_b 5.6378(3)
_cell_length_c 7.9085(5)
_cell_angle_alpha 90.
_cell_angle_beta 90.011(2)
_cell_angle_gamma 90.
_cell_volume 246.99
_cell_formula_units_Z 2
_symmetry_space_group_name_H-M 'P 1 21/n 1'
_symmetry_Int_Tables_number 14
_refine_ls_R_factor_all 0.048
loop_
_symmetry_equiv_pos_site_id
_symmetry_equiv_pos_as_xyz
1 '-x+1/2, y+1/2, -z+1/2'
2 '-x, -y, -z'
3 'x+1/2, -y+1/2, z+1/2'
4 'x, y, z'
loop_
_atom_type_symbol
_atom_type_oxidation_number
Al3+ 3
Na1+ 1
F1- -1
loop_
_atom_site_label
_atom_site_type_symbol
_atom_site_symmetry_multiplicity
_atom_site_Wyckoff_symbol
_atom_site_fract_x
_atom_site_fract_y
_atom_site_fract_z
_atom_site_B_iso_or_equiv
_atom_site_occupancy
_atom_site_attached_hydrogens
Al1 Al3+ 2 a 0 0 0 . 1. 0
Na1 Na1+ 2 b 0 0 0.5 . 1. 0
Na2 Na1+ 4 e -.0075(4) 0.4645(4) 0.2510(3) . 1. 0
F1 F1- 4 e 0.0888(5) 0.0342(7) 0.2179(3) . 1. 0
F2 F1- 4 e 0.2335(5) 0.3250(5) 0.5399(4) . 1. 0
F3 F1- 4 e 0.1679(5) 0.2646(5) 0.9476(5) . 1. 0
loop_
_atom_site_aniso_label
_atom_site_aniso_type_symbol
_atom_site_aniso_beta_11
_atom_site_aniso_beta_22
_atom_site_aniso_beta_33
_atom_site_aniso_beta_12
_atom_site_aniso_beta_13
_atom_site_aniso_beta_23
Al1 Al3+ 0.02440(76) 0.02331(78) 0.02191(72) 0.00044(70) -.00004(56) 0.00027(73)
Na1 Na1+ 0.0429(14) 0.0404(14) 0.0384(13) -0.0059(13) -0.0009(11) 0.0013(14)
Na2 Na1+ 0.0622(13) 0.0599(15) 0.0630(14) -0.0073(13) 0.0006(10) 0.0015(14)
F1 F1- 0.0694(20) 0.0853(25) 0.0274(13) 0.0017(20) -0.0096(13) -0.0079(18)
F2 F1- 0.0482(16) 0.0507(18) 0.0636(21) -0.0219(15) 0.0099(15) -0.0034(16)
F3 F1- 0.0550(18) 0.0423(17) 0.0795(25) -0.0162(15) 0.0027(17) 0.0156(17)
#End of TTdata_74205-ICSD