
#(C) 2019 by FIZ Karlsruhe - Leibniz Institute for Information Infrastructure.  All rights reserved.
data_74329-ICSD
_database_code_ICSD 74329
_audit_creation_date 1995-10-17
_audit_update_record 2011-02-01
_chemical_name_systematic 'Sodium titanium gallium oxide (0.8/2.2/4.8/12)'
_chemical_formula_structural 'Na0.8 Ti2.2 Ga4.8 O12'
_chemical_formula_sum 'Ga4.8 Na0.8 O12 Ti2.2'
_chemical_name_structure_type Na.8Ti2.2Ga4.8O12
_exptl_crystal_density_diffrn 4.88
_publ_section_title

;
Synthesis and structure refinement of sodium titanogallate containing
one-dimensional channels of large cross section
;
loop_
_citation_id
_citation_journal_full
_citation_year
_citation_journal_volume
_citation_page_first
_citation_page_last
_citation_journal_id_ASTM
primary 'Materials Research Bulletin' 1993 28 173 178 MRBUAC
loop_
_publ_author_name
'Michiue, Y.'
'Sasaki, T.'
'Watanabe, M.'
'Fujiki, Y.'
_cell_length_a 15.8278(4)
_cell_length_b 9.3326(2)
_cell_length_c 2.9981(1)
_cell_angle_alpha 90.
_cell_angle_beta 90.
_cell_angle_gamma 90.
_cell_volume 442.86
_cell_formula_units_Z 2
_symmetry_space_group_name_H-M 'P b a m'
_symmetry_Int_Tables_number 55
_refine_ls_R_factor_all 0.022
loop_
_symmetry_equiv_pos_site_id
_symmetry_equiv_pos_as_xyz
1 'x+1/2, -y+1/2, z'
2 '-x+1/2, y+1/2, z'
3 'x, y, -z'
4 '-x, -y, -z'
5 '-x+1/2, y+1/2, -z'
6 'x+1/2, -y+1/2, -z'
7 '-x, -y, z'
8 'x, y, z'
loop_
_atom_type_symbol
_atom_type_oxidation_number
Na1+ 1
Ga3+ 3
Ti4+ 4
Ga3+ 3
Ti4+ 4
Ga3+ 3
Ti4+ 4
O2- -2
loop_
_atom_site_label
_atom_site_type_symbol
_atom_site_symmetry_multiplicity
_atom_site_Wyckoff_symbol
_atom_site_fract_x
_atom_site_fract_y
_atom_site_fract_z
_atom_site_B_iso_or_equiv
_atom_site_occupancy
_atom_site_attached_hydrogens
Na1 Na1+ 4 e 0 0 0.172(8) 3.7(8) 0.4 0
Ga1 Ga3+ 4 g 0.1443(3) 0.2991(5) 0 1.10(5) 1. 0
Ga2 Ga3+ 4 h 0.1995(2) 0.0022(6) 0.5 1.10(5) 0.8 0
Ti1 Ti4+ 4 h 0.1995(2) 0.0022(6) 0.5 1.10(5) 0.2 0
Ga3 Ga3+ 4 g 0.3529(4) 0.2208(6) 0 1.10(5) 0.14 0
Ti2 Ti4+ 4 g 0.3529(4) 0.2208(6) 0 1.10(5) 0.86 0
Ga4 Ga3+ 2 d 0 0.5 0.5 1.10(5) 0.92 0
Ti3 Ti4+ 2 d 0 0.5 0.5 1.10(5) 0.08 0
O1 O2- 4 g 0.144(1) 0.102(2) 0 1.2(1) 1. 0
O2 O2- 4 h 0.295(1) 0.128(2) 0.5 1.2(1) 1. 0
O3 O2- 4 g 0.444(1) 0.104(2) 0 1.2(1) 1. 0
O4 O2- 4 h 0.092(1) 0.360(2) 0.5 1.2(1) 1. 0
O5 O2- 4 g 0.250(1) 0.381(2) 0 1.2(1) 1. 0
O6 O2- 4 h 0.386(1) 0.343(2) 0.5 1.2(1) 1. 0
#End of TTdata_74329-ICSD