
#(C) 2019 by FIZ Karlsruhe - Leibniz Institute for Information Infrastructure.  All rights reserved.
data_74356-ICSD
_database_code_ICSD 74356
_audit_creation_date 1995-10-17
_audit_update_record 2010-08-01
_chemical_name_systematic 'Sodium germanium titanium tris(phosphate(V))'
_chemical_formula_structural 'Na (Ge Ti) (P O4)3'
_chemical_formula_sum 'Ge1 Na1 O12 P3 Ti1'
_chemical_name_structure_type NaGeTi(PO4)3
_exptl_crystal_density_diffrn 3.29
_publ_section_title

;
Preparation and structural study of sodium germanium phosphate-sodium titanium
phosphate solid solutions. I. Evolution of structure with composition
;
loop_
_citation_id
_citation_journal_full
_citation_year
_citation_journal_volume
_citation_page_first
_citation_page_last
_citation_journal_id_ASTM
primary 'Materials Research Bulletin' 1993 28 793 801 MRBUAC
loop_
_publ_author_name
'Carrasco, M.P.'
'Guillem, M.C.'
'Alamo, J.'
_cell_length_a 8.3058(5)
_cell_length_b 8.3058(5)
_cell_length_c 21.696(1)
_cell_angle_alpha 90.
_cell_angle_beta 90.
_cell_angle_gamma 120.
_cell_volume 1296.2
_cell_formula_units_Z 6
_symmetry_space_group_name_H-M 'R -3 H'
_symmetry_Int_Tables_number 148
_refine_ls_R_factor_all 0.031
loop_
_symmetry_equiv_pos_site_id
_symmetry_equiv_pos_as_xyz
1 'x-y, x, -z'
2 'y, -x+y, -z'
3 '-x, -y, -z'
4 '-x+y, -x, z'
5 '-y, x-y, z'
6 'x, y, z'
7 'x-y+2/3, x+1/3, -z+1/3'
8 'y+2/3, -x+y+1/3, -z+1/3'
9 '-x+2/3, -y+1/3, -z+1/3'
10 '-x+y+2/3, -x+1/3, z+1/3'
11 '-y+2/3, x-y+1/3, z+1/3'
12 'x+2/3, y+1/3, z+1/3'
13 'x-y+1/3, x+2/3, -z+2/3'
14 'y+1/3, -x+y+2/3, -z+2/3'
15 '-x+1/3, -y+2/3, -z+2/3'
16 '-x+y+1/3, -x+2/3, z+2/3'
17 '-y+1/3, x-y+2/3, z+2/3'
18 'x+1/3, y+2/3, z+2/3'
loop_
_atom_type_symbol
_atom_type_oxidation_number
Na1+ 1
Ge4+ 4
Ti4+ 4
Ge4+ 4
Ti4+ 4
P5+ 5
O2- -2
loop_
_atom_site_label
_atom_site_type_symbol
_atom_site_symmetry_multiplicity
_atom_site_Wyckoff_symbol
_atom_site_fract_x
_atom_site_fract_y
_atom_site_fract_z
_atom_site_B_iso_or_equiv
_atom_site_occupancy
_atom_site_attached_hydrogens
Na1 Na1+ 3 a 0 0 0 4.(1) 1. 0
Na2 Na1+ 3 b 0 0 0.5 3.(1) 1. 0
Ge1 Ge4+ 6 c 0 0 0.1458(4) 1.3(3) 0.70(6) 0
Ti1 Ti4+ 6 c 0 0 0.1458(4) 1.3(3) 0.30(6) 0
Ge2 Ge4+ 6 c 0 0 0.6457(5) 1.2(3) 0.30(6) 0
Ti2 Ti4+ 6 c 0 0 0.6457(5) 1.2(3) 0.70(6) 0
P1 P5+ 18 f 0.287(1) 0.000(2) 0.2467(6) 1.39(9) 1. 0
O1 O2- 18 f 0.178(3) -.042(4) 0.1991(1) 0.8(4) 1. 0
O2 O2- 18 f 0.042(5) 0.850(3) 0.6860(8) 2.4(2) 1. 0
O3 O2- 18 f 0.202(4) 0.164(3) 0.0910(7) 0.2(3) 1. 0
O4 O2- 18 f 0.838(4) 0.824(4) 0.589(1) 1.9(5) 1. 0
#End of TTdata_74356-ICSD