
#(C) 2019 by FIZ Karlsruhe - Leibniz Institute for Information Infrastructure.  All rights reserved.
data_74408-ICSD
_database_code_ICSD 74408
_audit_creation_date 1995-10-17
_chemical_name_systematic 'Heptasodium hexathiopentaaurate(I)'
_chemical_formula_structural 'Na7 (Au5 S6)'
_chemical_formula_sum 'Au5 Na7 S6'
_exptl_crystal_density_diffrn 5.45
_publ_section_title
'Na7Au5S6 - a novel thioaurate(I) based on a b.c.c. chalcogen packing'
loop_
_citation_id
_citation_journal_full
_citation_year
_citation_journal_volume
_citation_page_first
_citation_page_last
_citation_journal_id_ASTM
primary 'Journal of Alloys and Compounds' 1992 183 252 262 JALCEU
loop_
_publ_author_name
'Klepp, K.O.'
'Brunnbauer, G.'
_cell_length_a 10.424(6)
_cell_length_b 7.024(6)
_cell_length_c 22.270(10)
_cell_angle_alpha 90.
_cell_angle_beta 90.
_cell_angle_gamma 90.
_cell_volume 1630.57
_cell_formula_units_Z 4
_symmetry_space_group_name_H-M 'P b c n'
_symmetry_Int_Tables_number 60
_refine_ls_R_factor_all 0.062
loop_
_symmetry_equiv_pos_site_id
_symmetry_equiv_pos_as_xyz
1 'x, -y, z+1/2'
2 '-x+1/2, y+1/2, z'
3 'x+1/2, y+1/2, -z+1/2'
4 '-x, -y, -z'
5 '-x, y, -z+1/2'
6 'x+1/2, -y+1/2, -z'
7 '-x+1/2, -y+1/2, z+1/2'
8 'x, y, z'
loop_
_atom_type_symbol
_atom_type_oxidation_number
Na1+ 1
Au1+ 1
S2- -2
loop_
_atom_site_label
_atom_site_type_symbol
_atom_site_symmetry_multiplicity
_atom_site_Wyckoff_symbol
_atom_site_fract_x
_atom_site_fract_y
_atom_site_fract_z
_atom_site_B_iso_or_equiv
_atom_site_occupancy
_atom_site_attached_hydrogens
Na1 Na1+ 4 c 0 -.004(4) 0.25 2.0(5) 1. 0
Na2 Na1+ 8 d 0.262(3) 0.504(3) 0.5920(9) 3.4(6) 1. 0
Na3 Na1+ 8 d 0.378(2) 0.338(3) 0.3792(9) 1.9(5) 1. 0
Na4 Na1+ 8 d 0.607(2) 0.120(3) 0.544(1) 1.8(5) 1. 0
Au1 Au1+ 4 a 0.5 0.5 0.5 1.03(4) 1. 0
Au2 Au1+ 8 d 0.0023(6) 0.4711(3) 0.32740(8) 1.54(3) 1. 0
Au3 Au1+ 8 d 0.2453(3) 0.7288(3) 0.2519(2) 1.48(3) 1. 0
S1 S2- 8 d 0.357(1) 0.250(2) 0.501(1) 1.1(2) 1. 0
S2 S2- 8 d 0.134(1) 0.212(1) 0.3370(6) 1.1(3) 1. 0
S3 S2- 8 d 0.378(1) 0.759(2) 0.6660(7) 1.5(2) 1. 0
#End of TTdata_74408-ICSD