
#(C) 2019 by FIZ Karlsruhe - Leibniz Institute for Information Infrastructure.  All rights reserved.
data_74558-ICSD
_database_code_ICSD 74558
_audit_creation_date 1995-10-17
_audit_update_record 2011-02-01
_chemical_name_systematic 'Tripotassium sodium bis(chromate) - LT'
_chemical_formula_structural 'K3 Na (Cr O4)2'
_chemical_formula_sum 'Cr2 K3 Na1 O8'
_chemical_name_structure_type Na2BaCu(VO4)2
_exptl_crystal_density_diffrn 2.78
_cell_measurement_temperature 230.
_publ_section_title

;
Structure determination of the ferroelastic phase of K3 Na (Cr O4)2 at 200 and
230 K and the redetermination of its parent phase at 290 K
;
loop_
_citation_id
_citation_journal_full
_citation_year
_citation_journal_volume
_citation_page_first
_citation_page_last
_citation_journal_id_ASTM
primary 'Acta Crystallographica, Section B: Structural Science' 1994 50 13 22
ASBSDK
loop_
_publ_author_name
'Fabry, J.'
'Breczewski, T.'
'Madariaga, G.'
_cell_length_a 10.128(3)
_cell_length_b 5.8437(5)
_cell_length_c 15.022(2)
_cell_angle_alpha 90.
_cell_angle_beta 89.97(2)
_cell_angle_gamma 90.
_cell_volume 889.08
_cell_formula_units_Z 4
_symmetry_space_group_name_H-M 'C 1 2/c 1'
_symmetry_Int_Tables_number 15
_refine_ls_R_factor_all 0.033
loop_
_symmetry_equiv_pos_site_id
_symmetry_equiv_pos_as_xyz
1 'x, -y, z+1/2'
2 '-x, -y, -z'
3 '-x, y, -z+1/2'
4 'x, y, z'
5 'x+1/2, -y+1/2, z+1/2'
6 '-x+1/2, -y+1/2, -z'
7 '-x+1/2, y+1/2, -z+1/2'
8 'x+1/2, y+1/2, z'
loop_
_atom_type_symbol
_atom_type_oxidation_number
Cr6+ 6
K1+ 1
Na1+ 1
O2- -2
loop_
_atom_site_label
_atom_site_type_symbol
_atom_site_symmetry_multiplicity
_atom_site_Wyckoff_symbol
_atom_site_fract_x
_atom_site_fract_y
_atom_site_fract_z
_atom_site_B_iso_or_equiv
_atom_site_occupancy
_atom_site_attached_hydrogens
Cr1 Cr6+ 8 f 0.1663(2) 0.49528(3) 0.13696(3) 0.0083(1) 1. 0
K1 K1+ 8 f 0.1671(4) 0.49446(6) 0.41669(4) . 1. 0
K2 K1+ 4 e 0 0.9836(1) 0.25 . 1. 0
Na1 Na1+ 4 a 0 0 0 . 1. 0
O1 O2- 8 f 0.166(2) 0.5133(3) 0.2441(2) . 1. 0
O2 O2- 8 f 0.0890(9) 0.719(1) 0.0943(6) . 1. 0
O3 O2- 8 f 0.0891(9) 0.261(1) 0.1044(6) . 1. 0
O4 O2- 8 f 0.317(1) 0.4905(7) 0.097(1) . 1. 0
loop_
_atom_site_aniso_label
_atom_site_aniso_type_symbol
_atom_site_aniso_U_11
_atom_site_aniso_U_22
_atom_site_aniso_U_33
_atom_site_aniso_U_12
_atom_site_aniso_U_13
_atom_site_aniso_U_23
K1 K1+ 0.02045(107) 0.01223(89) 0.01027(32) -0.00036(17) -0.00028(129) 0.0007(1)
K2 K1+ 0.04220(147) 0.02734(90) 0.01252(40) 0 0.00034(117) 0
Na1 Na1+ 0.02199(307) 0.00105(231) 0.01111(63) -0.00026(43) -0.00049(373)
0.00055(21)
O1 O2- 0.04868(428) 0.04238(322) 0.00877(90) 0.00359(190) -0.00200(348)
-0.00145(64)
O2 O2- 0.02698(364) 0.01449(274) 0.03035(190) 0.00406(188) -0.00183(251)
0.00608(169)
O3 O2- 0.02694(309) 0.01306(206) 0.03315(192) -0.00326(161) -0.00106(223)
-0.00664(161)
O4 O2- 0.01512(26) 0.02147(295) 0.03334(334) 0.00003(203) 0.01268(276)
0.00405(180)
#End of TTdata_74558-ICSD