
#(C) 2019 by FIZ Karlsruhe - Leibniz Institute for Information Infrastructure.  All rights reserved.
data_74566-ICSD
_database_code_ICSD 74566
_audit_creation_date 1995-10-17
_audit_update_record 2015-02-01
_chemical_name_systematic 'Tetrasodium titanium diphosphate(V) oxide'
_chemical_formula_structural 'Na3.91 (Ti P2 O9)'
_chemical_formula_sum 'Na3.91 O9 P2 Ti1'
_chemical_name_structure_type Na4Ti(PO4)2O
_exptl_crystal_density_diffrn 2.77
_publ_section_title 'Structure of a modulated monoclinic phase of Na4TiP2O9'
loop_
_citation_id
_citation_journal_full
_citation_year
_citation_journal_volume
_citation_page_first
_citation_page_last
_citation_journal_id_ASTM
primary 'Acta Crystallographica, Section B: Structural Science' 1994 50 261 268
ASBSDK
loop_
_publ_author_name
'Maximov, B.A.'
'Bolotina, N.B.'
'Simonov, V.I.'
'Petricek, V.'
'Schulz, H.'
_cell_length_a 8.631(1)
_cell_length_b 7.541(1)
_cell_length_c 7.049(1)
_cell_angle_alpha 90.
_cell_angle_beta 116.10(2)
_cell_angle_gamma 90.
_cell_volume 412.01
_cell_formula_units_Z 2
_symmetry_space_group_name_H-M 'P 1 2/c 1'
_symmetry_Int_Tables_number 13
_refine_ls_R_factor_all 0.068
loop_
_symmetry_equiv_pos_site_id
_symmetry_equiv_pos_as_xyz
1 'x, -y, z+1/2'
2 '-x, -y, -z'
3 '-x, y, -z+1/2'
4 'x, y, z'
loop_
_atom_type_symbol
_atom_type_oxidation_number
Ti4+ 4
P5+ 5
O2- -2
Na1+ 1
loop_
_atom_site_label
_atom_site_type_symbol
_atom_site_symmetry_multiplicity
_atom_site_Wyckoff_symbol
_atom_site_fract_x
_atom_site_fract_y
_atom_site_fract_z
_atom_site_B_iso_or_equiv
_atom_site_occupancy
_atom_site_attached_hydrogens
Ti1 Ti4+ 2 b 0.5 0.5 0 . 1. 0
P1 P5+ 4 g 0.2399(1) 0.2466(1) 0.6042(2) . 1. 0
O1 O2- 2 f 0.5 0.6044(5) 0.75 . 1. 0
O2 O2- 4 g 0.6525(4) 0.6940(4) 0.1637(7) . 1. 0
O3 O2- 4 g 0.2935(4) 0.6428(4) -.0440(7) . 1. 0
O4 O2- 4 g 0.2793(4) 0.0542(4) 0.5899(8) . 1. 0
O5 O2- 4 g 0.0533(4) 0.7144(4) 0.0418(7) . 1. 0
Na1 Na1+ 2 d 0.5 0 0 . 1. 0
Na2 Na1+ 2 e 0 0.5100(4) 0.75 . 1. 0
Na3 Na1+ 4 g 0.2299(3) 0.2207(3) 0.1037(7) . 0.763(7) 0
Na4 Na1+ 2 e 0 0.0194(6) 0.75 . 0.386 0
loop_
_atom_site_aniso_label
_atom_site_aniso_type_symbol
_atom_site_aniso_U_11
_atom_site_aniso_U_22
_atom_site_aniso_U_33
_atom_site_aniso_U_12
_atom_site_aniso_U_13
_atom_site_aniso_U_23
Ti1 Ti4+ 0.0069(5) 0.0142(6) 0.0179(6) -.0002(4) 0.0055(5) -.0118(4)
P1 P5+ 0.0101(5) 0.0049(5) 0.0096(5) -.0026(4) 0.0086(4) -.0027(4)
O1 O2- 0.014(2) 0.006(2) 0.011(2) 0 0.011(2) 0
O2 O2- 0.022(2) 0.009(1) 0.013(1) -.008(1) 0.015(1) -.007(1)
O3 O2- 0.014(2) 0.016(2) 0.012(1) 0.010(1) 0.011(1) 0.006(1)
O4 O2- 0.025(2) 0.006(1) 0.021(2) 0.001(1) 0.019(2) -.002(1)
O5 O2- 0.014(2) 0.021(2) 0.015(1) 0.002(1) 0.012(1) 0.000(1)
Na1 Na1+ 0.030(2) 0.034(2) 0.033(2) 0.006(1) 0.028(2) 0.012(1)
Na2 Na1+ 0.026(1) 0.018(1) 0.022(1) 0 0.020(1) 0
Na3 Na1+ 0.014(1) 0.013(1) 0.021(1) 0.0015(8) 0.013(1) -.0003(9)
Na4 Na1+ 0.018(3) 0.010(2) 0.020(3) 0 0.015(3) 0
#End of TTdata_74566-ICSD