
#(C) 2019 by FIZ Karlsruhe - Leibniz Institute for Information Infrastructure.  All rights reserved.
data_74654-ICSD
_database_code_ICSD 74654
_audit_creation_date 1995-10-17
_chemical_name_systematic 'Sodium bromate(III) trihydrate'
_chemical_formula_structural 'Na (Br O2) (H2 O)3'
_chemical_formula_sum 'H6 Br1 Na1 O5'
_chemical_name_structure_type NaClO2(H2O)3
_exptl_crystal_density_diffrn 2.22
_publ_section_title

;
Characterization of sodium bromite by X-ray crystallography and bromine K-edge
EXAFS,IR,Raman and NMR spectroscopies
;
loop_
_citation_id
_citation_journal_full
_citation_year
_citation_journal_volume
_citation_page_first
_citation_page_last
_citation_journal_id_ASTM
primary 'Journal of the American Chemical Society' 1989 111 6210 6212 JACSAT
loop_
_publ_author_name
'Levason, W.'
'Ogden, J.S.'
'Spicer, M.D.'
'Webster, M.'
'Young, N.A.'
_cell_length_a 5.421(3)
_cell_length_b 6.438(1)
_cell_length_c 8.999(1)
_cell_angle_alpha 72.76(1)
_cell_angle_beta 87.87(2)
_cell_angle_gamma 70.70(2)
_cell_volume 282.46
_cell_formula_units_Z 2
_symmetry_space_group_name_H-M 'P -1'
_symmetry_Int_Tables_number 2
_refine_ls_R_factor_all 0.02
loop_
_symmetry_equiv_pos_site_id
_symmetry_equiv_pos_as_xyz
1 '-x, -y, -z'
2 'x, y, z'
loop_
_atom_type_symbol
_atom_type_oxidation_number
Br3+ 3
Na1+ 1
O2- -2
H1+ 1
loop_
_atom_site_label
_atom_site_type_symbol
_atom_site_symmetry_multiplicity
_atom_site_Wyckoff_symbol
_atom_site_fract_x
_atom_site_fract_y
_atom_site_fract_z
_atom_site_B_iso_or_equiv
_atom_site_occupancy
_atom_site_attached_hydrogens
Br1 Br3+ 2 i 0.11172(5) 0.16719(4) 0.12742(3) 0.0360(2) 1. 0
Na1 Na1+ 2 i 0.2671(2) 0.4546(1) 0.3975(1) 0.0276(7) 1. 0
O1 O2- 2 i 0.1594(3) 0.1830(3) 0.3090(2) 0.036(2) 1. 0
O2 O2- 2 i 0.7965(3) 0.1600(3) 0.1178(2) 0.038(1) 1. 0
O3 O2- 2 i 0.4848(3) 0.5775(3) 0.1687(2) 0.033(1) 1. 0
O4 O2- 2 i 0.7090(3) 0.2528(3) 0.4904(2) 0.030(1) 1. 0
O5 O2- 2 i 0.1773(3) 0.2859(3) 0.6752(2) 0.034(1) 1. 0
H1 H1+ 2 i 0.4050(69) 0.6543(59) 0.0877(41) 0.061(4) 1. 0
H2 H1+ 2 i 0.5674(67) 0.4474(62) 0.1528(38) 0.061(4) 1. 0
H3 H1+ 2 i 0.7450(62) 0.1121(61) 0.5643(38) 0.061(4) 1. 0
H4 H1+ 2 i 0.8424(67) 0.2218(55) 0.4227(39) 0.061(4) 1. 0
H5 H1+ 2 i 0.2773(72) 0.2923(61) 0.7267(41) 0.061(4) 1. 0
H6 H1+ 2 i 0.1717(64) 0.1423(62) 0.7273(40) 0.061(4) 1. 0
#End of TTdata_74654-ICSD