
#(C) 2019 by FIZ Karlsruhe - Leibniz Institute for Information Infrastructure.  All rights reserved.
data_74677-ICSD
_database_code_ICSD 74677
_audit_creation_date 1995-10-17
_audit_update_record 2012-08-01
_chemical_name_systematic 'Sodium rubidium tecto-alumosilicate *'
_chemical_formula_structural 'Na72.9 Rb26.8 (Al96 Si96 O384)'
_chemical_formula_sum 'Al96 Na72.9 O384 Rb26.8 Si96'
_chemical_name_structure_type Faujasite-Fd3--frame
_chemical_name_mineral 'Zeolite X (Rb-exchanged, dehydrated)'
_exptl_crystal_density_diffrn 1.63
_publ_section_title 'Structure of the tetrahedral Na5(4+) cluster in zeolite X'
loop_
_citation_id
_citation_journal_full
_citation_year
_citation_journal_volume
_citation_page_first
_citation_page_last
_citation_journal_id_ASTM
primary 'Journal of Physical Chemistry' 1993 97 12663 12664 JPCHAX
loop_
_publ_author_name
'Kim, Y.'
'Han, Y.W.'
'Seff, K.'
_cell_length_a 25.045(4)
_cell_length_b 25.045(4)
_cell_length_c 25.045(4)
_cell_angle_alpha 90.
_cell_angle_beta 90.
_cell_angle_gamma 90.
_cell_volume 15709.53
_cell_formula_units_Z 1
_symmetry_space_group_name_H-M 'F d -3 Z'
_symmetry_Int_Tables_number 203
_refine_ls_R_factor_all 0.082
loop_
_symmetry_equiv_pos_site_id
_symmetry_equiv_pos_as_xyz
1 '-z, x+3/4, y+3/4'
2 'z+3/4, x+3/4, -y'
3 'z+3/4, -x, y+3/4'
4 '-z, -x, -y'
5 'y+3/4, -z, x+3/4'
6 '-y, z+3/4, x+3/4'
7 'y+3/4, z+3/4, -x'
8 '-y, -z, -x'
9 'x+3/4, y+3/4, -z'
10 'x+3/4, -y, z+3/4'
11 '-x, y+3/4, z+3/4'
12 '-x, -y, -z'
13 'z, -x+1/4, -y+1/4'
14 '-z+1/4, -x+1/4, y'
15 '-z+1/4, x, -y+1/4'
16 'z, x, y'
17 '-y+1/4, z, -x+1/4'
18 'y, -z+1/4, -x+1/4'
19 '-y+1/4, -z+1/4, x'
20 'y, z, x'
21 '-x+1/4, -y+1/4, z'
22 '-x+1/4, y, -z+1/4'
23 'x, -y+1/4, -z+1/4'
24 'x, y, z'
25 '-z, x+1/4, y+1/4'
26 'z+3/4, x+1/4, -y+1/2'
27 'z+3/4, -x+1/2, y+1/4'
28 '-z, -x+1/2, -y+1/2'
29 'y+3/4, -z+1/2, x+1/4'
30 '-y, z+1/4, x+1/4'
31 'y+3/4, z+1/4, -x+1/2'
32 '-y, -z+1/2, -x+1/2'
33 'x+3/4, y+1/4, -z+1/2'
34 'x+3/4, -y+1/2, z+1/4'
35 '-x, y+1/4, z+1/4'
36 '-x, -y+1/2, -z+1/2'
37 'z, -x+3/4, -y+3/4'
38 '-z+1/4, -x+3/4, y+1/2'
39 '-z+1/4, x+1/2, -y+3/4'
40 'z, x+1/2, y+1/2'
41 '-y+1/4, z+1/2, -x+3/4'
42 'y, -z+3/4, -x+3/4'
43 '-y+1/4, -z+3/4, x+1/2'
44 'y, z+1/2, x+1/2'
45 '-x+1/4, -y+3/4, z+1/2'
46 '-x+1/4, y+1/2, -z+3/4'
47 'x, -y+3/4, -z+3/4'
48 'x, y+1/2, z+1/2'
49 '-z+1/2, x+3/4, y+1/4'
50 'z+1/4, x+3/4, -y+1/2'
51 'z+1/4, -x, y+1/4'
52 '-z+1/2, -x, -y+1/2'
53 'y+1/4, -z, x+1/4'
54 '-y+1/2, z+3/4, x+1/4'
55 'y+1/4, z+3/4, -x+1/2'
56 '-y+1/2, -z, -x+1/2'
57 'x+1/4, y+3/4, -z+1/2'
58 'x+1/4, -y, z+1/4'
59 '-x+1/2, y+3/4, z+1/4'
60 '-x+1/2, -y, -z+1/2'
61 'z+1/2, -x+1/4, -y+3/4'
62 '-z+3/4, -x+1/4, y+1/2'
63 '-z+3/4, x, -y+3/4'
64 'z+1/2, x, y+1/2'
65 '-y+3/4, z, -x+3/4'
66 'y+1/2, -z+1/4, -x+3/4'
67 '-y+3/4, -z+1/4, x+1/2'
68 'y+1/2, z, x+1/2'
69 '-x+3/4, -y+1/4, z+1/2'
70 '-x+3/4, y, -z+3/4'
71 'x+1/2, -y+1/4, -z+3/4'
72 'x+1/2, y, z+1/2'
73 '-z+1/2, x+1/4, y+3/4'
74 'z+1/4, x+1/4, -y'
75 'z+1/4, -x+1/2, y+3/4'
76 '-z+1/2, -x+1/2, -y'
77 'y+1/4, -z+1/2, x+3/4'
78 '-y+1/2, z+1/4, x+3/4'
79 'y+1/4, z+1/4, -x'
80 '-y+1/2, -z+1/2, -x'
81 'x+1/4, y+1/4, -z'
82 'x+1/4, -y+1/2, z+3/4'
83 '-x+1/2, y+1/4, z+3/4'
84 '-x+1/2, -y+1/2, -z'
85 'z+1/2, -x+3/4, -y+1/4'
86 '-z+3/4, -x+3/4, y'
87 '-z+3/4, x+1/2, -y+1/4'
88 'z+1/2, x+1/2, y'
89 '-y+3/4, z+1/2, -x+1/4'
90 'y+1/2, -z+3/4, -x+1/4'
91 '-y+3/4, -z+3/4, x'
92 'y+1/2, z+1/2, x'
93 '-x+3/4, -y+3/4, z'
94 '-x+3/4, y+1/2, -z+1/4'
95 'x+1/2, -y+3/4, -z+1/4'
96 'x+1/2, y+1/2, z'
loop_
_atom_type_symbol
_atom_type_oxidation_number
Si4+ 4
Al3+ 3
O2- -2
Rb1+ 1
Na0+ 0.95
loop_
_atom_site_label
_atom_site_type_symbol
_atom_site_symmetry_multiplicity
_atom_site_Wyckoff_symbol
_atom_site_fract_x
_atom_site_fract_y
_atom_site_fract_z
_atom_site_B_iso_or_equiv
_atom_site_occupancy
_atom_site_attached_hydrogens
Si1 Si4+ 96 g -.0536(2) 0.0353(2) 0.1245(3) . 1. 0
Al1 Al3+ 96 g -.0547(3) 0.1234(4) 0.0354(2) . 1. 0
O1 O2- 96 g 0.8952(6) 0.0008(8) 0.1097(6) . 1. 0
O2 O2- 96 g -.0041(6) -.0007(6) 0.1443(5) . 1. 0
O3 O2- 96 g -.0323(6) 0.0697(7) 0.0738(7) . 1. 0
O4 O2- 96 g -.0709(7) 0.0722(8) 0.1737(8) . 1. 0
Rb1 Rb1+ 96 g 0.4226(5) 0.1167(22) 0.1363(13) . 0.224 0
Rb2 Rb1+ 96 g 0.4245(26) 0.0597(26) 0.0572(28) . 0.0552 0
Na1 Na0+ 32 e 0.2288(5) 0.2288(5) 0.2288(5) . 0.9125 0
Na2 Na0+ 32 e 0.0604(6) 0.0604(6) 0.0604(6) . 0.875 0
Na3 Na0+ 16 c 0 0 0 . 0.3688 0
Na4 Na0+ 8 a 0.125 0.125 0.125 . 1.225 0
loop_
_atom_site_aniso_label
_atom_site_aniso_type_symbol
_atom_site_aniso_U_11
_atom_site_aniso_U_22
_atom_site_aniso_U_33
_atom_site_aniso_U_12
_atom_site_aniso_U_13
_atom_site_aniso_U_23
Si1 Si4+ 0.0187(30) 0.0160(33) 0.0174(30) -.0011(28) -.0095(37) -.0073(39)
Al1 Al3+ 0.0217(38) 0.0255(37) 0.0134(34) -.0160(42) 0.0042(30) 0.0084(43)
O1 O2- 0.031(10) 0.048(11) 0.022(10) 0.0020(92) -.0090(76) -.0055(91)
O2 O2- 0.0274(97) 0.0160(77) 0.0209(82) 0.0127(73) -.0171(74) -.0092(76)
O3 O2- 0.043(12) 0.021(10) 0.036(12) -.0091(95) -0.012(10) -.0172(84)
O4 O2- 0.044(13) 0.038(14) 0.051(15) -0.009(11) -0.009(12) -.0227(94)
Rb1 Rb1+ 0.0478(68) 0.091(30) 0.077(28) -0.002(11) 0.024(11) -0.021(18)
Rb2 Rb1+ 0.065(46) 0.103(49) 0.125(61) 0.072(41) -0.017(41) -0.002(42)
Na1 Na0+ 0.0540(63) 0.0540(63) 0.0540(63) 0.0228(78) 0.0228(78) 0.0228(78)
Na2 Na0+ 0.0757(81) 0.0757(81) 0.0757(81) 0.0308(96) 0.0308(96) 0.0308(96)
Na3 Na0+ 0.117(51) 0.117(51) 0.117(51) 0.112(59) 0.112(59) 0.112(59)
Na4 Na0+ 0.0455(94) 0.0455(94) 0.0455(94) 0 0 0
#End of TTdata_74677-ICSD