
#(C) 2019 by FIZ Karlsruhe - Leibniz Institute for Information Infrastructure.  All rights reserved.
data_74850-ICSD
_database_code_ICSD 74850
_audit_creation_date 1995-10-17
_chemical_name_systematic 'Sodium oxide indate (24.8/3/4)'
_chemical_formula_structural 'Na24.84 O3 (In O4)4'
_chemical_formula_sum 'In4 Na24.84 O19'
_exptl_crystal_density_diffrn 3.05
_publ_section_title
'Zur Ueberwindung von Vorurteilen: das erste basische Oxoindat, Na26O3(InO4)4'
loop_
_citation_id
_citation_journal_full
_citation_year
_citation_journal_volume
_citation_page_first
_citation_page_last
_citation_journal_id_ASTM
primary 'Zeitschrift fuer Anorganische und Allgemeine Chemie (1950) (DE)' 1994
620 1179 1184 ZAACAB
loop_
_publ_author_name
'Lulei, M.'
'Hoppe, R.'
_cell_length_a 14.2773(4)
_cell_length_b 14.2773(4)
_cell_length_c 14.2773(4)
_cell_angle_alpha 90.
_cell_angle_beta 90.
_cell_angle_gamma 90.
_cell_volume 2910.3
_cell_formula_units_Z 4
_symmetry_space_group_name_H-M 'I -4 3 d'
_symmetry_Int_Tables_number 220
_refine_ls_R_factor_all 0.025
loop_
_symmetry_equiv_pos_site_id
_symmetry_equiv_pos_as_xyz
1 '-y+1/4, -x+3/4, z+3/4'
2 'y+3/4, -x+1/4, -z+3/4'
3 '-y+3/4, x+3/4, -z+1/4'
4 'y+1/4, x+1/4, z+1/4'
5 'z+1/2, -x+1/2, -y'
6 '-z+1/2, -x, y+1/2'
7 '-z, x+1/2, -y+1/2'
8 'z, x, y'
9 'z+3/4, -y+1/4, -x+3/4'
10 '-z+3/4, y+3/4, -x+1/4'
11 '-z+1/4, -y+3/4, x+3/4'
12 'z+1/4, y+1/4, x+1/4'
13 '-y, z+1/2, -x+1/2'
14 'y+1/2, -z+1/2, -x'
15 '-y+1/2, -z, x+1/2'
16 'y, z, x'
17 '-x+3/4, z+3/4, -y+1/4'
18 '-x+1/4, -z+3/4, y+3/4'
19 'x+3/4, -z+1/4, -y+3/4'
20 'x+1/4, z+1/4, y+1/4'
21 '-x+1/2, -y, z+1/2'
22 '-x, y+1/2, -z+1/2'
23 'x+1/2, -y+1/2, -z'
24 'x, y, z'
25 '-y+3/4, -x+1/4, z+1/4'
26 'y+1/4, -x+3/4, -z+1/4'
27 '-y+1/4, x+1/4, -z+3/4'
28 'y+3/4, x+3/4, z+3/4'
29 'z, -x, -y+1/2'
30 '-z, -x+1/2, y'
31 '-z+1/2, x, -y'
32 'z+1/2, x+1/2, y+1/2'
33 'z+1/4, -y+3/4, -x+1/4'
34 '-z+1/4, y+1/4, -x+3/4'
35 '-z+3/4, -y+1/4, x+1/4'
36 'z+3/4, y+3/4, x+3/4'
37 '-y+1/2, z, -x'
38 'y, -z, -x+1/2'
39 '-y, -z+1/2, x'
40 'y+1/2, z+1/2, x+1/2'
41 '-x+1/4, z+1/4, -y+3/4'
42 '-x+3/4, -z+1/4, y+1/4'
43 'x+1/4, -z+3/4, -y+1/4'
44 'x+3/4, z+3/4, y+3/4'
45 '-x, -y+1/2, z'
46 '-x+1/2, y, -z'
47 'x, -y, -z+1/2'
48 'x+1/2, y+1/2, z+1/2'
loop_
_atom_type_symbol
_atom_type_oxidation_number
In3+ 3
Na1+ 1
O2- -2
loop_
_atom_site_label
_atom_site_type_symbol
_atom_site_symmetry_multiplicity
_atom_site_Wyckoff_symbol
_atom_site_fract_x
_atom_site_fract_y
_atom_site_fract_z
_atom_site_B_iso_or_equiv
_atom_site_occupancy
_atom_site_attached_hydrogens
In1 In3+ 16 c 0.0917 0.0917 0.0917 . 1. 0
Na1 Na1+ 48 e 0.7564(1) 0.6120(1) 0.7984(1) . 0.96 0
Na2 Na1+ 48 e 0.9516(1) 0.6393(1) 0.8052(1) . 0.88 0
Na3 Na1+ 12 b 0.75 0.625 0 . 0.92 0
O1 O2- 16 c 0.9256(2) 0.9256(2) 0.9256(2) . 1. 0
O2 O2- 48 e 0.9041(2) 0.8403(2) 0.7121(2) . 1. 0
O3 O2- 12 a 0.875 0.5 0.75 . 1. 0
loop_
_atom_site_aniso_label
_atom_site_aniso_type_symbol
_atom_site_aniso_U_11
_atom_site_aniso_U_22
_atom_site_aniso_U_33
_atom_site_aniso_U_12
_atom_site_aniso_U_13
_atom_site_aniso_U_23
In1 In3+ 0.0093(1) 0.0093(1) 0.0093(1) 0.0000(1) 0.0000(1) 0.0000(1)
Na1 Na1+ 0.0316(10) 0.028(1) 0.0216(9) 0.0019(8) -.0039(9) 0.0019(7)
Na2 Na1+ 0.0197(9) 0.0301(11) 0.0296(10) -.0056(8) 0.0058(8) -.0098(9)
Na3 Na1+ 0.0116(26) 0.0194(15) 0.0194(15) 0 0 0
O1 O2- 0.0162(9) 0.0162(9) 0.0162(9) -.0023(9) -.0023(9) -.0023(9)
O2 O2- 0.0167(12) 0.0251(14) 0.0135(11) -.0017(13) 0.0052(10) -.0041(11)
O3 O2- 0.0124(23) 0.0173(15) 0.0173(15) 0 0 0
#End of TTdata_74850-ICSD