
#(C) 2019 by FIZ Karlsruhe - Leibniz Institute for Information Infrastructure.  All rights reserved.
data_74866-ICSD
_database_code_ICSD 74866
_audit_creation_date 1995-10-17
_chemical_name_systematic 'Rubidium sodium tetralithium bis(lithosilicate)'
_chemical_formula_structural 'Rb Na Li4 (Li (Si O4))2'
_chemical_formula_sum 'Li6 Na1 O8 Rb1 Si2'
_exptl_crystal_density_diffrn 2.87
_publ_section_title

;
Neue Silicate mit "stuffed Pyrgoms": CsKNaLi9(Li(SiO4))4,
CsKNa2Li8(Li(SiO4))4, RbNa3Li8(Li(SiO4))4 und RbNaLi4(Li(SiO4))2
;
loop_
_citation_id
_citation_journal_full
_citation_year
_citation_journal_volume
_citation_page_first
_citation_page_last
_citation_journal_id_ASTM
primary 'Zeitschrift fuer Anorganische und Allgemeine Chemie (1950) (DE)' 1994
620 1495 1508 ZAACAB
loop_
_publ_author_name
'Hofmann, J.'
'Brandes, R.'
'Hoppe, R.'
_cell_length_a 15.7310(13)
_cell_length_b 6.3048(5)
_cell_length_c 7.8125(8)
_cell_angle_alpha 90.
_cell_angle_beta 90.566(8)
_cell_angle_gamma 90.
_cell_volume 774.81
_cell_formula_units_Z 4
_symmetry_space_group_name_H-M 'C 1 2/m 1'
_symmetry_Int_Tables_number 12
_refine_ls_R_factor_all 0.031
loop_
_symmetry_equiv_pos_site_id
_symmetry_equiv_pos_as_xyz
1 '-x, y, -z'
2 '-x, -y, -z'
3 'x, -y, z'
4 'x, y, z'
5 '-x+1/2, y+1/2, -z'
6 '-x+1/2, -y+1/2, -z'
7 'x+1/2, -y+1/2, z'
8 'x+1/2, y+1/2, z'
loop_
_atom_type_symbol
_atom_type_oxidation_number
Rb1+ 1
Si4+ 4
Na1+ 1
O2- -2
Li1+ 1
loop_
_atom_site_label
_atom_site_type_symbol
_atom_site_symmetry_multiplicity
_atom_site_Wyckoff_symbol
_atom_site_fract_x
_atom_site_fract_y
_atom_site_fract_z
_atom_site_B_iso_or_equiv
_atom_site_occupancy
_atom_site_attached_hydrogens
Rb1 Rb1+ 4 i 0.7557(1) 0 0.5316(1) . 1. 0
Si1 Si4+ 4 i 0.4293(1) 0 0.7085(1) . 1. 0
Si2 Si4+ 4 i 0.1461(1) 0 0.8595(1) . 1. 0
Na1 Na1+ 4 g 0 0.2505(2) 0 . 1. 0
O1 O2- 8 j 0.4013(1) 0.2170(3) 0.6094(2) . 1. 0
O2 O2- 4 i 0.4464(2) 0.5 0.2383(3) . 1. 0
O3 O2- 4 i 0.3840(2) 0 0.8959(3) . 1. 0
O4 O2- 4 i 0.0319(2) 0.5 0.7454(3) . 1. 0
O5 O2- 8 j 0.3049(1) 0.7171(3) 0.1946(2) . 1. 0
O6 O2- 4 i 0.3701(2) 0.5 0.9336(3) . 1. 0
Li1 Li1+ 4 i 0.3586(4) 0 0.1347(8) . 1. 0
Li2 Li1+ 4 i 0.5673(4) 0.5 0.2833(8) . 1. 0
Li3 Li1+ 8 j 0.1870(3) 0.2576(7) 0.1337(7) . 1. 0
Li4 Li1+ 8 j 0.4308(4) 0.7532(7) 0.3732(6) . 1. 0
loop_
_atom_site_aniso_label
_atom_site_aniso_type_symbol
_atom_site_aniso_U_11
_atom_site_aniso_U_22
_atom_site_aniso_U_33
_atom_site_aniso_U_12
_atom_site_aniso_U_13
_atom_site_aniso_U_23
Rb1 Rb1+ 0.0146(2) 0.0170(2) 0.0152(2) 0 0.0007(1) 0
Si1 Si4+ 0.0043(4) 0.0036(4) 0.0033(4) 0 0.0003(3) 0
Si2 Si4+ 0.0037(4) 0.0034(4) 0.0042(4) 0 0.0005(3) 0
Na1 Na1+ 0.0120(7) 0.0131(7) 0.0127(7) 0 0.0000(5) 0
O1 O2- 0.0148(9) 0.0054(8) 0.0073(7) 0.0013(6) -.0012(6) 0.0003(6)
O2 O2- 0.0056(11) 0.0075(11) 0.0114(12) 0 -.0018(9) 0
O3 O2- 0.0079(11) 0.0066(10) 0.0053(11) 0 0.0021(8) 0
O4 O2- 0.0052(11) 0.0073(10) 0.0108(12) 0 -.0010(9) 0
O5 O2- 0.0071(8) 0.0065(8) 0.0151(8) 0.0013(6) 0.0028(6) -.0005(6)
O6 O2- 0.0115(12) 0.0089(11) 0.0057(11) 0 0.0013(9) 0
Li1 Li1+ 0.013(3) 0.0125(29) 0.0081(29) 0 0.0003(23) 0
Li2 Li1+ 0.0097(28) 0.0087(27) 0.012(3) 0 -.0008(22) 0
Li3 Li1+ 0.0096(21) 0.0068(19) 0.0330(28) 0.0021(14) -.0062(19) -.0030(17)
Li4 Li1+ 0.0332(29) 0.0080(19) 0.0106(22) -.0032(17) 0.0069(19) -.0022(15)
#End of TTdata_74866-ICSD