
#(C) 2019 by FIZ Karlsruhe - Leibniz Institute for Information Infrastructure.  All rights reserved.
data_74867-ICSD
_database_code_ICSD 74867
_audit_creation_date 1995-10-17
_audit_update_record 2012-02-01
_chemical_name_systematic 'Sodium hydroxide 3.5-hydrate'
_chemical_formula_structural 'Na (O H) (H2 O)3.5'
_chemical_formula_sum 'H8 Na1 O4.5'
_chemical_name_structure_type NaOH(H2O)3.5
_exptl_crystal_density_diffrn 1.5
_cell_measurement_temperature 173.
_publ_section_title

;
Die Kristallstruktur von Na O H * 3.5(H2 O) und Na O H * 7(H2 O). Eine
Praezisierung.
;
loop_
_citation_id
_citation_journal_full
_citation_year
_citation_journal_volume
_citation_page_first
_citation_page_last
_citation_journal_id_ASTM
primary 'Zeitschrift fuer Anorganische und Allgemeine Chemie (1950) (DE)' 1994
620 1509 1513 ZAACAB
loop_
_publ_author_name
'Mootz, D.'
'Ruetter, H.'
'Wiskemann, R.'
_cell_length_a 6.481(5)
_cell_length_b 12.460(3)
_cell_length_c 11.681(3)
_cell_angle_alpha 90.
_cell_angle_beta 104.12(3)
_cell_angle_gamma 90.
_cell_volume 914.78
_cell_formula_units_Z 8
_symmetry_space_group_name_H-M 'P 1 21/c 1'
_symmetry_Int_Tables_number 14
_refine_ls_R_factor_all 0.044
loop_
_symmetry_equiv_pos_site_id
_symmetry_equiv_pos_as_xyz
1 'x, -y+1/2, z+1/2'
2 '-x, -y, -z'
3 '-x, y+1/2, -z+1/2'
4 'x, y, z'
loop_
_atom_type_symbol
_atom_type_oxidation_number
Na1+ 1
O2- -2
H1+ 1
loop_
_atom_site_label
_atom_site_type_symbol
_atom_site_symmetry_multiplicity
_atom_site_Wyckoff_symbol
_atom_site_fract_x
_atom_site_fract_y
_atom_site_fract_z
_atom_site_B_iso_or_equiv
_atom_site_occupancy
_atom_site_attached_hydrogens
Na1 Na1+ 4 e 0.57771(8) 0.31689(4) 0.10166(4) . 1. 0
Na2 Na1+ 4 e 0.40848(8) 0.29179(4) 0.33336(4) . 1. 0
O1 O2- 4 e 0.2494(1) 0.03100(7) 0.07580(8) . 1. 0
O2 O2- 4 e 0.0741(2) 0.55572(8) 0.18162(8) . 1. 0
O3 O2- 4 e 0.3676(2) 0.37834(8) 0.91987(8) . 1. 0
O4 O2- 4 e 0.4768(1) 0.46891(7) 0.21877(8) . 1. 0
O5 O2- 4 e 0.2449(2) 0.24052(8) 0.14161(9) . 1. 0
O6 O2- 4 e 0.8949(2) 0.38319(8) 0.05406(8) . 1. 0
O7 O2- 4 e 0.5917(2) 0.13896(7) 0.02450(8) . 1. 0
O8 O2- 4 e 0.7432(2) 0.26025(8) 0.29632(8) . 1. 0
O9 O2- 4 e 0.1069(2) 0.39034(8) 0.35895(8) . 1. 0
H1 H1+ 4 e 0.159(4) 0.004(2) 0.093(2) 0.034(5) 1. 0
H2 H1+ 4 e 0.020(4) 0.582(2) 0.232(2) 0.041(6) 1. 0
H3 H1+ 4 e 0.419(4) 0.422(2) 0.883(2) 0.042(6) 1. 0
H4 H1+ 4 e 0.247(9) 0.389(3) -.082(3) 0.1(1) 1. 0
H5 H1+ 4 e 0.553(4) 0.490(2) 0.279(2) 0.042(6) 1. 0
H6 H1+ 4 e 0.362(4) 0.495(2) 0.213(2) 0.032(5) 1. 0
H7 H1+ 4 e 0.226(3) 0.177(2) 0.123(2) 0.026(5) 1. 0
H8 H1+ 4 e 0.130(4) 0.273(2) 0.107(2) 0.049(7) 1. 0
H9 H1+ 4 e 0.954(4) 0.439(2) 0.100(2) 0.048(7) 1. 0
H10 H1+ 4 e 0.886(3) 0.396(2) -.021(2) 0.025(5) 1. 0
H11 H1+ 4 e 0.494(3) 0.107(2) 0.048(2) 0.031(5) 1. 0
H12 H1+ 4 e 0.648(3) 0.085(2) -.007(2) 0.035(5) 1. 0
H13 H1+ 4 e 0.784(3) 0.195(2) 0.300(2) 0.026(5) 1. 0
H14 H1+ 4 e 0.849(3) 0.296(2) 0.321(2) 0.025(5) 1. 0
H15 H1+ 4 e 0.103(3) 0.439(2) 0.315(2) 0.034(5) 1. 0
H16 H1+ 4 e 0.140(4) 0.420(2) 0.432(2) 0.043(6) 1. 0
loop_
_atom_site_aniso_label
_atom_site_aniso_type_symbol
_atom_site_aniso_U_11
_atom_site_aniso_U_22
_atom_site_aniso_U_33
_atom_site_aniso_U_12
_atom_site_aniso_U_13
_atom_site_aniso_U_23
Na1 Na1+ 0.0226(2) 0.0180(2) 0.0148(2) -.0014(2) 0.0040(2) -.0003(2)
Na2 Na1+ 0.0197(2) 0.0177(2) 0.0156(2) 0.0008(2) 0.0044(2) -.0011(2)
O1 O2- 0.0179(4) 0.0179(4) 0.0183(4) -.0025(3) 0.0065(3) 0.0004(3)
O2 O2- 0.0209(4) 0.0187(4) 0.0199(4) -.0012(3) 0.0014(3) -.0008(3)
O3 O2- 0.0225(4) 0.0196(4) 0.0218(4) 0.0030(3) 0.0074(3) 0.0040(3)
O4 O2- 0.0194(4) 0.0207(4) 0.0186(4) 0.0018(3) 0.0027(3) -.0027(3)
O5 O2- 0.0227(4) 0.0197(4) 0.0235(4) 0.0030(3) 0.0007(3) -.0053(3)
O6 O2- 0.0238(4) 0.0186(4) 0.0190(4) -.0036(6) 0.0044(3) -.0008(3)
O7 O2- 0.0229(4) 0.0159(4) 0.0231(4) -.0010(3) 0.0099(3) -.0007(3)
O8 O2- 0.0192(4) 0.0197(4) 0.0211(4) 0.0031(3) 0.0034(3) 0.0013(3)
O9 O2- 0.0211(4) 0.0219(4) 0.0161(4) -.0001(1) 0.0046(3) -.0002(3)
#End of TTdata_74867-ICSD