
#(C) 2019 by FIZ Karlsruhe - Leibniz Institute for Information Infrastructure.  All rights reserved.
data_74934-ICSD
_database_code_ICSD 74934
_audit_creation_date 1995-10-17
_chemical_name_systematic 'Sodium tetraoxonitridotungstate'
_chemical_formula_structural 'Na5 (W O4 N)'
_chemical_formula_sum 'N1 Na5 O4 W1'
_exptl_crystal_density_diffrn 4.13
_publ_section_title

;
Synthese und Kristallstruktur eines Natrium-tetraoxonitridowolframats(VI),
Na5WO4N
;
loop_
_citation_id
_citation_journal_full
_citation_year
_citation_journal_volume
_citation_page_first
_citation_page_last
_citation_journal_id_ASTM
primary 'Zeitschrift fuer Anorganische und Allgemeine Chemie (1950) (DE)' 1994
620 535 538 ZAACAB
loop_
_publ_author_name
'Jacobs, H.'
'Ostermann, D.'
'Harbrecht, B.'
_cell_length_a 9.873(2)
_cell_length_b 5.769(1)
_cell_length_c 10.648(2)
_cell_angle_alpha 90.
_cell_angle_beta 90.
_cell_angle_gamma 90.
_cell_volume 606.48
_cell_formula_units_Z 4
_symmetry_space_group_name_H-M 'C m c 21'
_symmetry_Int_Tables_number 36
_refine_ls_R_factor_all 0.029
loop_
_symmetry_equiv_pos_site_id
_symmetry_equiv_pos_as_xyz
1 'x, -y, z+1/2'
2 '-x, -y, z+1/2'
3 '-x, y, z'
4 'x, y, z'
5 'x+1/2, -y+1/2, z+1/2'
6 '-x+1/2, -y+1/2, z+1/2'
7 '-x+1/2, y+1/2, z'
8 'x+1/2, y+1/2, z'
loop_
_atom_type_symbol
_atom_type_oxidation_number
W6+ 6
Na1+ 1
O2- -2
N3- -3
loop_
_atom_site_label
_atom_site_type_symbol
_atom_site_symmetry_multiplicity
_atom_site_Wyckoff_symbol
_atom_site_fract_x
_atom_site_fract_y
_atom_site_fract_z
_atom_site_B_iso_or_equiv
_atom_site_occupancy
_atom_site_attached_hydrogens
W1 W6+ 4 a 0 0.20881(4) 0.75 . 1. 0
Na1 Na1+ 8 b 0.1862(2) 0.3504(4) 0.2425(5) . 1. 0
Na2 Na1+ 8 b 0.1914(3) 0.9847(7) 0.4913(4) . 1. 0
Na3 Na1+ 4 a 0 0.4321(9) 0.4746(4) . 1. 0
O1 O2- 8 b 0.1352(4) 0.2806(8) 0.6232(4) . 1. 0
O2 O2- 8 b 0.8641(4) 0.6761(7) 0.3676(4) . 1. 0
N1 N3- 4 a 0 0.095(1) 0.2762(9) . 1. 0
loop_
_atom_site_aniso_label
_atom_site_aniso_type_symbol
_atom_site_aniso_U_11
_atom_site_aniso_U_22
_atom_site_aniso_U_33
_atom_site_aniso_U_12
_atom_site_aniso_U_13
_atom_site_aniso_U_23
W1 W6+ 0.00380(5) 0.00621(6) 0.00780(6) 0 0 0.0006(3)
Na1 Na1+ 0.078(6) 0.118(7) 0.033(1) 0.019(6) 0.007(1) 0.000(2)
Na2 Na1+ 0.0164(9) 0.013(1) 0.026(1) -.002(1) 0.003(1) -.003(1)
Na3 Na1+ 0.007(1) 0.030(2) 0.024(2) 0 0 0.017(1)
O1 O2- 0.005(1) 0.014(1) 0.011(1) 0.001(1) 0.001(1) 0.002(1)
O2 O2- 0.007(1) 0.009(1) 0.009(1) 0.000(1) 0.001(1) 0.002(1)
N1 N3- 0.007(2) 0.008(2) 0.038(6) 0 0 -.001(2)
#End of TTdata_74934-ICSD