
#(C) 2019 by FIZ Karlsruhe - Leibniz Institute for Information Infrastructure.  All rights reserved.
data_74939-ICSD
_database_code_ICSD 74939
_audit_creation_date 1995-10-17
_chemical_name_systematic 'Potassium sodium diferrate (1.98/3.92/1)'
_chemical_formula_structural 'K1.98 Na3.92 (Fe2 O5)'
_chemical_formula_sum 'Fe2 K1.98 Na3.92 O5'
_chemical_name_structure_type Rb2K4Co2O5
_exptl_crystal_density_diffrn 2.75
_publ_section_title
'Ueber ein neues Oxoferrat mit "Butterfly-Motiv": K2Na4(Fe2O5)'
loop_
_citation_id
_citation_journal_full
_citation_year
_citation_journal_volume
_citation_page_first
_citation_page_last
_citation_journal_id_ASTM
primary 'Zeitschrift fuer Anorganische und Allgemeine Chemie (1950) (DE)' 1994
620 581 585 ZAACAB
loop_
_publ_author_name
'Moeller, A.'
'Hoppe, R.'
_cell_length_a 6.4594(5)
_cell_length_b 6.4594(5)
_cell_length_c 10.392(1)
_cell_angle_alpha 90.
_cell_angle_beta 90.
_cell_angle_gamma 90.
_cell_volume 433.59
_cell_formula_units_Z 2
_symmetry_space_group_name_H-M 'P 42/m n m'
_symmetry_Int_Tables_number 136
_refine_ls_R_factor_all 0.053
loop_
_symmetry_equiv_pos_site_id
_symmetry_equiv_pos_as_xyz
1 '-y+1/2, x+1/2, -z+1/2'
2 'y+1/2, -x+1/2, -z+1/2'
3 'y, x, -z'
4 '-y, -x, -z'
5 'y+1/2, -x+1/2, z+1/2'
6 '-y+1/2, x+1/2, z+1/2'
7 '-y, -x, z'
8 'y, x, z'
9 'x+1/2, -y+1/2, -z+1/2'
10 '-x+1/2, y+1/2, -z+1/2'
11 'x, y, -z'
12 '-x, -y, -z'
13 '-x+1/2, y+1/2, z+1/2'
14 'x+1/2, -y+1/2, z+1/2'
15 '-x, -y, z'
16 'x, y, z'
loop_
_atom_type_symbol
_atom_type_oxidation_number
Fe2+ 2.05
K1+ 1
Na1+ 1
O2- -2
loop_
_atom_site_label
_atom_site_type_symbol
_atom_site_symmetry_multiplicity
_atom_site_Wyckoff_symbol
_atom_site_fract_x
_atom_site_fract_y
_atom_site_fract_z
_atom_site_B_iso_or_equiv
_atom_site_occupancy
_atom_site_attached_hydrogens
Fe1 Fe2+ 4 g 0.7957(1) 0.2043(1) 0 . 1. 0
K1 K1+ 4 f 0.6881(3) 0.6881(3) 0 . 0.988(9) 0
Na1 Na1+ 4 e 0 0 0.7743(3) . 0.946(12) 0
Na2 Na1+ 4 d 0 0.5 0.25 . 1.014(14) 0
O1 O2- 8 j 0.7894(6) 0.7894(6) 0.3404(5) . 1. 0
O2 O2- 2 a 0 0 0 . 1. 0
loop_
_atom_site_aniso_label
_atom_site_aniso_type_symbol
_atom_site_aniso_U_11
_atom_site_aniso_U_22
_atom_site_aniso_U_33
_atom_site_aniso_U_12
_atom_site_aniso_U_13
_atom_site_aniso_U_23
Fe1 Fe2+ 0.0189(4) 0.0189(4) 0.0172(6) 0.0080(5) 0 0
K1 K1+ 0.0256(8) 0.0256(8) 0.1126(29) -.0034(10) 0 0
Na1 Na1+ 0.0337(13) 0.0337(13) 0.0121(16) -.0154(19) 0 0
Na2 Na1+ 0.0156(9) 0.0156(9) 0.0181(15) 0 0 0
O1 O2- 0.0414(19) 0.0414(19) 0.0331(27) -.0054(27) 0.0161(18) 0.0161(18)
O2 O2- 0.0309(32) 0.0309(32) 0.0146(40) 0.0189(44) 0 0
#End of TTdata_74939-ICSD