
#(C) 2019 by FIZ Karlsruhe - Leibniz Institute for Information Infrastructure.  All rights reserved.
data_75142-ICSD
_database_code_ICSD 75142
_audit_creation_date 1995-10-17
_audit_update_record 2010-02-01
_chemical_name_systematic 'Sodium aluminium diarsenate(V)'
_chemical_formula_structural 'Na Al (As2 O7)'
_chemical_formula_sum 'Al1 As2 Na1 O7'
_chemical_name_structure_type NaAlAs2O7
_exptl_crystal_density_diffrn 4.05
_publ_section_title 'Structure cristalline de Na Al As2 O7'
loop_
_citation_id
_citation_journal_full
_citation_year
_citation_journal_volume
_citation_page_first
_citation_page_last
_citation_journal_id_ASTM
primary 'Journal of Solid State Chemistry' 1994 112 277 280 JSSCBI
loop_
_publ_author_name
'Driss, A.'
'Jouini, T.'
_cell_length_a 6.9114(7)
_cell_length_b 8.1345(12)
_cell_length_c 9.5446(10)
_cell_angle_alpha 90.
_cell_angle_beta 107.51(1)
_cell_angle_gamma 90.
_cell_volume 511.74
_cell_formula_units_Z 4
_symmetry_space_group_name_H-M 'P 1 21/c 1'
_symmetry_Int_Tables_number 14
_refine_ls_R_factor_all 0.039
loop_
_symmetry_equiv_pos_site_id
_symmetry_equiv_pos_as_xyz
1 'x, -y+1/2, z+1/2'
2 '-x, -y, -z'
3 '-x, y+1/2, -z+1/2'
4 'x, y, z'
loop_
_atom_type_symbol
_atom_type_oxidation_number
As5+ 5
Al3+ 3
Na1+ 1
O2- -2
loop_
_atom_site_label
_atom_site_type_symbol
_atom_site_symmetry_multiplicity
_atom_site_Wyckoff_symbol
_atom_site_fract_x
_atom_site_fract_y
_atom_site_fract_z
_atom_site_B_iso_or_equiv
_atom_site_occupancy
_atom_site_attached_hydrogens
As1 As5+ 4 e 0.5161(1) 0.4124(1) 0.2916(1) . 1. 0
As2 As5+ 4 e 0.9436(1) 0.5369(1) 0.2979(1) . 1. 0
Al1 Al3+ 4 e 0.2807(4) 0.2745(3) 0.4938(3) . 1. 0
Na1 Na1+ 4 e 0.8059(5) 0.1379(5) 0.4716(4) . 1. 0
O1 O2- 4 e 0.3753(8) 0.4092(7) 0.1177(6) . 1. 0
O2 O2- 4 e 0.5327(9) 0.5974(7) 0.3670(6) . 1. 0
O3 O2- 4 e 0.4804(9) 0.2567(7) 0.3961(6) . 1. 0
O4 O2- 4 e 0.7674(8) 0.3783(7) 0.2878(7) . 1. 0
O5 O2- 4 e 0.1651(8) 0.4422(7) 0.3539(6) . 1. 0
O6 O2- 4 e 0.9269(9) 0.6830(7) 0.4159(6) . 1. 0
O7 O2- 4 e 0.9002(9) 0.6066(7) 0.1261(6) . 1. 0
loop_
_atom_site_aniso_label
_atom_site_aniso_type_symbol
_atom_site_aniso_beta_11
_atom_site_aniso_beta_22
_atom_site_aniso_beta_33
_atom_site_aniso_beta_12
_atom_site_aniso_beta_13
_atom_site_aniso_beta_23
As1 As5+ 0.0071(2) 0.0032(1) 0.0031(1) -.0002(1) 0.0015(1) 0.0000(1)
As2 As5+ 0.0064(2) 0.0035(1) 0.0030(1) 0.0000(1) 0.0014(1) 0.0000(1)
Al1 Al3+ 0.0068(5) 0.0032(4) 0.0030(3) 0.0001(3) 0.0019(3) 0.0002(3)
Na1 Na1+ 0.0106(9) 0.0053(6) 0.0084(6) -.0001(6) 0.0024(6) 0.0006(5)
O1 O2- 0.0073(13) 0.0031(8) 0.0032(7) -.0013(9) -.0001(7) -.0016(6)
O2 O2- 0.0091(14) 0.0029(8) 0.0047(7) -.0009(9) 0.0021(8) -.0003(7)
O3 O2- 0.0106(15) 0.0023(8) 0.0042(7) 0.0015(9) 0.0042(9) 0.0015(6)
O4 O2- 0.0052(12) 0.0034(9) 0.0061(8) -.0007(8) 0.0023(8) -.0008(7)
O5 O2- 0.0068(13) 0.0033(9) 0.0024(7) 0.0013(9) 0.0010(8) 0.0003(6)
O6 O2- 0.0106(15) 0.0037(9) 0.0038(7) -.0012(9) 0.0042(9) -.0019(6)
O7 O2- 0.0103(14) 0.0037(9) 0.0026(7) 0.0003(9) 0.0020(8) -.0001(6)
#End of TTdata_75142-ICSD