
#(C) 2019 by FIZ Karlsruhe - Leibniz Institute for Information Infrastructure.  All rights reserved.
data_75166-ICSD
_database_code_ICSD 75166
_audit_creation_date 1995-10-17
_chemical_name_systematic
'Heptasodium distrontium tecto-fluoroheptaferrate(III)'
_chemical_formula_structural 'Na7 Sr2 (Fe7 F32)'
_chemical_formula_sum 'F32 Fe7 Na7 Sr2'
_exptl_crystal_density_diffrn 3.52
_publ_section_title
'Synthesis, crystal structure, and magnetic study of Na7Sr2Fe7F32'
loop_
_citation_id
_citation_journal_full
_citation_year
_citation_journal_volume
_citation_page_first
_citation_page_last
_citation_journal_id_ASTM
primary 'Journal of Solid State Chemistry' 1994 112 82 91 JSSCBI
loop_
_publ_author_name
'Hemon-Ribaud, A.'
'Greneche, J.M.'
'Courbion, G.'
_cell_length_a 10.372(3)
_cell_length_b 10.805(3)
_cell_length_c 44.98(2)
_cell_angle_alpha 90.
_cell_angle_beta 90.
_cell_angle_gamma 90.
_cell_volume 5040.88
_cell_formula_units_Z 8
_symmetry_space_group_name_H-M 'F d d d Z'
_symmetry_Int_Tables_number 70
_refine_ls_R_factor_all 0.036
loop_
_symmetry_equiv_pos_site_id
_symmetry_equiv_pos_as_xyz
1 'x+3/4, y+3/4, -z'
2 'x+3/4, -y, z+3/4'
3 '-x, y+3/4, z+3/4'
4 '-x, -y, -z'
5 '-x+1/4, -y+1/4, z'
6 '-x+1/4, y, -z+1/4'
7 'x, -y+1/4, -z+1/4'
8 'x, y, z'
9 'x+3/4, y+1/4, -z+1/2'
10 'x+3/4, -y+1/2, z+1/4'
11 '-x, y+1/4, z+1/4'
12 '-x, -y+1/2, -z+1/2'
13 '-x+1/4, -y+3/4, z+1/2'
14 '-x+1/4, y+1/2, -z+3/4'
15 'x, -y+3/4, -z+3/4'
16 'x, y+1/2, z+1/2'
17 'x+1/4, y+3/4, -z+1/2'
18 'x+1/4, -y, z+1/4'
19 '-x+1/2, y+3/4, z+1/4'
20 '-x+1/2, -y, -z+1/2'
21 '-x+3/4, -y+1/4, z+1/2'
22 '-x+3/4, y, -z+3/4'
23 'x+1/2, -y+1/4, -z+3/4'
24 'x+1/2, y, z+1/2'
25 'x+1/4, y+1/4, -z'
26 'x+1/4, -y+1/2, z+3/4'
27 '-x+1/2, y+1/4, z+3/4'
28 '-x+1/2, -y+1/2, -z'
29 '-x+3/4, -y+3/4, z'
30 '-x+3/4, y+1/2, -z+1/4'
31 'x+1/2, -y+3/4, -z+1/4'
32 'x+1/2, y+1/2, z'
loop_
_atom_type_symbol
_atom_type_oxidation_number
Sr2+ 2
Fe3+ 3
Na1+ 1
F1- -1
loop_
_atom_site_label
_atom_site_type_symbol
_atom_site_symmetry_multiplicity
_atom_site_Wyckoff_symbol
_atom_site_fract_x
_atom_site_fract_y
_atom_site_fract_z
_atom_site_B_iso_or_equiv
_atom_site_occupancy
_atom_site_attached_hydrogens
Sr1 Sr2+ 16 g 0.125 0.125 0.25704(2) . 1. 0
Fe1 Fe3+ 8 b 0.125 0.125 0.625 . 1. 0
Fe2 Fe3+ 16 d 0.5 0.5 0.5 . 1. 0
Fe3 Fe3+ 32 h 0.1110(1) 0.3615(1) 0.18213(2) . 1. 0
Na1 Na1+ 8 a 0.125 0.125 0.125 . 1. 0
Na2 Na1+ 16 g 0.125 0.125 0.3793(1) . 1. 0
Na3 Na1+ 32 h 0.1226(3) 0.3770(3) 0.3162(1) . 1. 0
F1 F1- 32 h 0.0024(4) 0.2780(3) 0.1547(1) . 1. 0
F2 F1- 32 h 0.0680(3) 0.0040(3) 0.0378(1) . 1. 0
F3 F1- 32 h 0.1133(4) 0.3910(3) 0.2612(1) . 1. 0
F4 F1- 32 h 0.0195(3) 0.0370(3) 0.3012(1) . 1. 0
F5 F1- 32 h 0.0119(3) 0.4478(3) 0.0416(1) . 1. 0
F6 F1- 32 h 0.0008(4) 0.0247(3) 0.8351(1) . 1. 0
F7 F1- 32 h 0.1072(7) 0.4968(4) 0.0958(1) . 1. 0
F8 F1- 16 g 0.125 0.125 0.5081(1) . 1. 0
F9 F1- 16 e 0.4478(6) 0.125 0.125 . 1. 0
loop_
_atom_site_aniso_label
_atom_site_aniso_type_symbol
_atom_site_aniso_U_11
_atom_site_aniso_U_22
_atom_site_aniso_U_33
_atom_site_aniso_U_12
_atom_site_aniso_U_13
_atom_site_aniso_U_23
Sr1 Sr2+ 0.0127(4) 0.0203(4) 0.0145(4) 0.0041(4) 0 0
Fe1 Fe3+ 0.0131(8) 0.0057(7) 0.0062(7) 0 0 0
Fe2 Fe3+ 0.0067(5) 0.0073(5) 0.0105(5) -.0001(5) 0.0006(4) 0.0001(4)
Fe3 Fe3+ 0.0137(4) 0.0066(3) 0.0080(3) 0.0019(3) -.0003(3) 0.0003(3)
Na1 Na1+ 0.0383(30) 0.0051(20) 0.0100(22) 0 0 0
Na2 Na1+ 0.0379(23) 0.0598(28) 0.0175(21) 0.0238(25) 0 0
Na3 Na1+ 0.0468(18) 0.0229(13) 0.0361(14) 0.0080(19) 0.0084(16) -.0026(13)
F1 F1- 0.0295(20) 0.0257(21) 0.0215(18) 0.0016(19) -.0112(17) -.0086(16)
F2 F1- 0.0216(18) 0.0173(17) 0.0206(18) 0.0041(17) -.0012(14) 0.0093(16)
F3 F1- 0.0166(18) 0.0226(18) 0.0200(16) -.0110(17) 0.0026(15) 0.0021(15)
F4 F1- 0.0162(19) 0.0153(17) 0.030(2) 0.0075(15) 0.0005(16) -.0030(15)
F5 F1- 0.0148(18) 0.0202(17) 0.0139(17) 0.0033(16) 0.0011(15) 0.0051(14)
F6 F1- 0.0209(18) 0.0245(20) 0.0209(18) 0.0063(17) -.0085(17) 0.0014(16)
F7 F1- 0.1704(65) 0.0234(22) 0.0208(20) -.0010(41) 0.0027(33) -.0163(18)
F8 F1- 0.0281(31) 0.0328(31) 0.0247(29) -.0216(30) 0 0
F9 F1- 0.0141(32) 0.0659(51) 0.1889(96) 0 0 -.0003(71)
#End of TTdata_75166-ICSD