
#(C) 2019 by FIZ Karlsruhe - Leibniz Institute for Information Infrastructure.  All rights reserved.
data_75265-ICSD
_database_code_ICSD 75265
_audit_creation_date 1995-10-17
_chemical_name_systematic 'Sodium lanthanum sulfate hydrate'
_chemical_formula_structural 'Na La (S O4)2 (H2 O)'
_chemical_formula_sum 'H2 La1 Na1 O9 S2'
_exptl_crystal_density_diffrn 3.32
_cell_measurement_temperature 296.
_publ_section_title 'Sodium lanthanum(III) sulfate monohydrate, NaLa(SO4)2.H2O'
loop_
_citation_id
_citation_journal_full
_citation_year
_citation_journal_volume
_citation_page_first
_citation_page_last
_citation_journal_id_ASTM
primary 'Acta Crystallographica, Section C: Crystal Structure Communications'
1994 50 835 838 ACSCEE
loop_
_publ_author_name
'Blackburn, A.C.'
'Gerkin, R.E.'
_cell_length_a 7.0557(7)
_cell_length_b 7.0557(7)
_cell_length_c 12.9669(9)
_cell_angle_alpha 90.
_cell_angle_beta 90.
_cell_angle_gamma 120.
_cell_volume 559.05
_cell_formula_units_Z 3
_symmetry_space_group_name_H-M 'P 31 2 1'
_symmetry_Int_Tables_number 152
_refine_ls_R_factor_all 0.014
loop_
_symmetry_equiv_pos_site_id
_symmetry_equiv_pos_as_xyz
1 'x-y, -y, -z+2/3'
2 '-x, -x+y, -z+1/3'
3 'y, x, -z'
4 '-x+y, -x, z+2/3'
5 '-y, x-y, z+1/3'
6 'x, y, z'
loop_
_atom_type_symbol
_atom_type_oxidation_number
La3+ 3
S6+ 6
Na1+ 1
O2- -2
H1+ 1
loop_
_atom_site_label
_atom_site_type_symbol
_atom_site_symmetry_multiplicity
_atom_site_Wyckoff_symbol
_atom_site_fract_x
_atom_site_fract_y
_atom_site_fract_z
_atom_site_B_iso_or_equiv
_atom_site_occupancy
_atom_site_attached_hydrogens
La1 La3+ 3 a 0.43318(4) 0 0.3333 . 1. 0
S1 S6+ 6 c 0.4528(1) 0.0118(1) 0.08645(5) . 1. 0
Na1 Na1+ 3 b 0.4681(3) 0 0.8333 . 1. 0
O1 O2- 6 c 0.4979(4) 0.8793(4) 0.0134(2) . 1. 0
O2 O2- 6 c 0.2614(4) 0.8701(4) 0.1515(2) . 1. 0
O3 O2- 6 c 0.6367(5) 0.1347(4) 0.1586(2) . 1. 0
O4 O2- 6 c 0.4093(5) 0.1613(4) 0.0257(2) . 1. 0
O5 O2- 6 c 0.071(1) -.0080(15) 0.3539(5) . 0.5 0
H1 H1+ 6 c 0.0456 0.1032 0.3539 0.047 1. 0
loop_
_atom_site_aniso_label
_atom_site_aniso_type_symbol
_atom_site_aniso_U_11
_atom_site_aniso_U_22
_atom_site_aniso_U_33
_atom_site_aniso_U_12
_atom_site_aniso_U_13
_atom_site_aniso_U_23
La1 La3+ 0.0105(1) 0.0094(2) 0.0087(1) 0.0047(1) -.0001(1) -.0002(1)
S1 S6+ 0.0124(3) 0.0082(4) 0.0081(3) 0.0053(3) 0.0004(2) 0.0010(2)
Na1 Na1+ 0.0190(7) 0.0086(10) 0.0114(8) 0.0043(5) 0.0001(6) 0.0001(6)
O1 O2- 0.0239(14) 0.0150(14) 0.0144(9) 0.0106(12) 0.0034(10) -.0006(10)
O2 O2- 0.0131(12) 0.0158(12) 0.0151(10) 0.0036(10) 0.0037(9) 0.0013(9)
O3 O2- 0.0148(12) 0.0194(14) 0.0128(10) 0.0035(11) -.0005(8) -.0003(9)
O4 O2- 0.0215(13) 0.0188(12) 0.0205(11) 0.0132(10) 0.0008(10) 0.0088(10)
O5 O2- 0.008 0.0258 0.0611 0.0089 0.0038 -.0147
#End of TTdata_75265-ICSD