
#(C) 2019 by FIZ Karlsruhe - Leibniz Institute for Information Infrastructure.  All rights reserved.
data_75418-ICSD
_database_code_ICSD 75418
_audit_creation_date 1996-04-22
_chemical_name_systematic 'Sodium vanadium dioxide difluoride'
_chemical_formula_structural 'Na V O2 F2'
_chemical_formula_sum 'F2 Na1 O2 V1'
_chemical_name_structure_type CsAsF4
_exptl_crystal_density_diffrn 3.07
_publ_section_title 'Synthesis and crystal structure of Na V O2 F2'
loop_
_citation_id
_citation_journal_full
_citation_year
_citation_journal_volume
_citation_page_first
_citation_page_last
_citation_journal_id_ASTM
primary 'European Journal of Solid State and Inorganic Chemistry' 1994 31 957
965 EJSCE5
loop_
_publ_author_name
'Crosnier-Lopez, M.P.'
'Duroy, H.'
'Fourquet, J.L.'
'Abrabri, M.'
_cell_length_a 6.399(1)
_cell_length_b 3.590(1)
_cell_length_c 7.220(2)
_cell_angle_alpha 90.
_cell_angle_beta 110.29(1)
_cell_angle_gamma 90.
_cell_volume 155.57
_cell_formula_units_Z 2
_symmetry_space_group_name_H-M 'P 1 21 1'
_symmetry_Int_Tables_number 4
_refine_ls_R_factor_all 0.027
loop_
_symmetry_equiv_pos_site_id
_symmetry_equiv_pos_as_xyz
1 '-x, y+1/2, -z'
2 'x, y, z'
loop_
_atom_type_symbol
_atom_type_oxidation_number
Na1+ 1
V5+ 5
F1- -1
O2- -2
loop_
_atom_site_label
_atom_site_type_symbol
_atom_site_symmetry_multiplicity
_atom_site_Wyckoff_symbol
_atom_site_fract_x
_atom_site_fract_y
_atom_site_fract_z
_atom_site_B_iso_or_equiv
_atom_site_occupancy
_atom_site_attached_hydrogens
Na1 Na1+ 2 a 0.6349(2) 0.7429(17) 0.2086(2) . 1. 0
V1 V5+ 2 a 0.1387(1) 0.25 0.2157(1) . 1. 0
F1 F1- 2 a 0.6214(3) 0.7366(22) 0.8816(3) . 1. 0
F2 F1- 2 a 0.1391(3) 0.7272(19) 0.7577(3) . 1. 0
O1 O2- 2 a 0.9052(3) 0.2321(15) 0.8573(3) . 1. 0
O2 O2- 2 a 0.7135(3) 0.7521(23) 0.5572(3) . 1. 0
loop_
_atom_site_aniso_label
_atom_site_aniso_type_symbol
_atom_site_aniso_U_11
_atom_site_aniso_U_22
_atom_site_aniso_U_33
_atom_site_aniso_U_12
_atom_site_aniso_U_13
_atom_site_aniso_U_23
Na1 Na1+ 0.0195(5) 0.0384(10) 0.0190(5) -.0028(16) 0.0076(4) 0.0023(14)
V1 V5+ 0.0106(2) 0.0203(2) 0.0137(2) 0.0002(5) 0.0057(1) 0.0000(5)
F1 F1- 0.0105(5) 0.0398(13) 0.0195(6) -.0025(16) 0.0075(5) 0.0016(19)
F2 F1- 0.0142(6) 0.0356(17) 0.0287(8) 0.0013(15) 0.0130(6) 0.0013(13)
O1 O2- 0.0159(7) 0.0174(11) 0.0225(8) 0.0032(13) 0.0093(6) 0.0024(15)
O2 O2- 0.0234(8) 0.0501(14) 0.0143(7) -.0015(33) 0.0043(6) -.0014(31)
#End of TTdata_75418-ICSD