
#(C) 2019 by FIZ Karlsruhe - Leibniz Institute for Information Infrastructure.  All rights reserved.
data_75421-ICSD
_database_code_ICSD 75421
_audit_creation_date 1996-04-22
_audit_update_record 2006-04-01
_chemical_name_systematic 'Sodium oxoantimony silicate - HT'
_chemical_formula_structural 'Na (Sb O) (Si O4)'
_chemical_formula_sum 'Na1 O5 Sb1 Si1'
_chemical_name_structure_type TlSbOGeO4
_exptl_crystal_density_diffrn 3.86
_cell_measurement_temperature 843.
_publ_section_title

;
Phase transitions in the compounds A Sb O Si O4 (A= Na, K) and A Sb O Ge O4
(A= K, Rb). 1.Crystal structures of the paraelectric phases.
;
loop_
_citation_id
_citation_journal_full
_citation_year
_citation_journal_volume
_citation_page_first
_citation_page_last
_citation_journal_id_ASTM
primary 'European Journal of Solid State and Inorganic Chemistry' 1994 31 995
1008 EJSCE5
loop_
_publ_author_name
'Favard, J.F.'
'Verbaere, A.'
'Piffard, Y.'
'Tournoux, M.'
_cell_length_a 12.8461(9)
_cell_length_b 6.3528(4)
_cell_length_c 10.6574(8)
_cell_angle_alpha 90.
_cell_angle_beta 90.
_cell_angle_gamma 90.
_cell_volume 869.74
_cell_formula_units_Z 8
_symmetry_space_group_name_H-M 'P n a n'
_symmetry_Int_Tables_number 52
_refine_ls_R_factor_all 0.041
loop_
_symmetry_equiv_pos_site_id
_symmetry_equiv_pos_as_xyz
1 'x+1/2, y+1/2, -z+1/2'
2 '-x, y+1/2, z+1/2'
3 'x+1/2, -y, z'
4 '-x, -y, -z'
5 '-x+1/2, -y+1/2, z+1/2'
6 'x, -y+1/2, -z+1/2'
7 '-x+1/2, y, -z'
8 'x, y, z'
loop_
_atom_type_symbol
_atom_type_oxidation_number
Sb5+ 5
Si4+ 4
O2- -2
Na1+ 1
loop_
_atom_site_label
_atom_site_type_symbol
_atom_site_symmetry_multiplicity
_atom_site_Wyckoff_symbol
_atom_site_fract_x
_atom_site_fract_y
_atom_site_fract_z
_atom_site_B_iso_or_equiv
_atom_site_occupancy
_atom_site_attached_hydrogens
Sb1 Sb5+ 4 d 0.13257(5) 0.25 0.75 . 1. 0
Sb2 Sb5+ 4 a 0 0 0 . 1. 0
Si1 Si4+ 4 c 0.25 0.0774(4) 0 . 1. 0
Si2 Si4+ 4 d 0.9336(2) 0.25 0.25 . 1. 0
O1 O2- 8 e 0.2585(5) 0.232(1) 0.1215(5) . 1. 0
O2 O2- 8 e 0.1500(4) 0.9257(9) 0.0144(6) . 1. 0
O3 O2- 8 e 0.8574(5) 0.0523(8) 0.2770(5) . 1. 0
O4 O2- 8 e 0.0122(5) 0.287(1) 0.3676(5) . 1. 0
O5 O2- 8 e 0.9760(5) 0.7257(9) 0.3791(5) . 1. 0
Na1 Na1+ 8 e 0.120(1) 0.521(2) 0.066(2) . 0.57(1) 0
Na2 Na1+ 8 e 0.142(1) 0.539(4) 0.163(2) . 0.43(1) 0
loop_
_atom_site_aniso_label
_atom_site_aniso_type_symbol
_atom_site_aniso_U_11
_atom_site_aniso_U_22
_atom_site_aniso_U_33
_atom_site_aniso_U_12
_atom_site_aniso_U_13
_atom_site_aniso_U_23
Sb1 Sb5+ 0.0148(2) 0.0106(2) 0.0091(2) 0 0 0.0014(2)
Sb2 Sb5+ 0.0138(2) 0.0134(2) 0.0090(1) -.0014(2) 0.0015(2) -.0013(2)
Si1 Si4+ 0.0132(9) 0.016(1) 0.0124(9) 0 -.003(1) 0
Si2 Si4+ 0.016(1) 0.0134(9) 0.0123(8) 0 0 -.002(1)
O1 O2- 0.026(2) 0.032(3) 0.021(2) 0.000(3) -.009(2) -.013(2)
O2 O2- 0.018(2) 0.024(2) 0.023(2) -.003(2) -.002(2) 0.003(2)
O3 O2- 0.030(3) 0.012(2) 0.028(3) -.005(2) 0.006(2) -.002(2)
O4 O2- 0.035(3) 0.036(3) 0.017(2) 0.013(3) -.009(2) -.011(2)
O5 O2- 0.031(2) 0.016(2) 0.021(2) -.007(2) -.012(2) 0.005(2)
Na1 Na1+ 0.106(8) 0.050(6) 0.16(1) 0.019(7) 0.063(9) 0.002(9)
Na2 Na1+ 0.07(1) 0.10(1) 0.16(2) 0.00(1) 0.02(1) 0.03(2)
#End of TTdata_75421-ICSD