
#(C) 2019 by FIZ Karlsruhe - Leibniz Institute for Information Infrastructure.  All rights reserved.
data_75440-ICSD
_database_code_ICSD 75440
_audit_creation_date 1996-04-22
_chemical_name_systematic 'Lanthanum sodium copper oxide (1.9/0.1/1/4)'
_chemical_formula_structural 'La (La0.88 Na0.12) Cu O4'
_chemical_formula_sum 'Cu1 La1.88 Na0.12 O4'
_chemical_name_structure_type (La,K)2CuO4
_exptl_crystal_density_diffrn 6.94
_publ_section_title

;
Single-crystal growth, alkali metal ordering,and superconductivity in La2-x Mx
Cu O4 (M= Na, K)
;
loop_
_citation_id
_citation_journal_full
_citation_year
_citation_journal_volume
_citation_page_first
_citation_page_last
_citation_journal_id_ASTM
primary 'Inorganic Chemistry' 1994 33 2761 2765 INOCAJ
loop_
_publ_author_name
'Stoll, S.L.'
'Stacy, A.M.'
'Torardi, C.C.'
_cell_length_a 3.766(1)
_cell_length_b 3.766(1)
_cell_length_c 13.216(5)
_cell_angle_alpha 90.
_cell_angle_beta 90.
_cell_angle_gamma 90.
_cell_volume 187.44
_cell_formula_units_Z 2
_symmetry_space_group_name_H-M 'P 4/n m m Z'
_symmetry_Int_Tables_number 129
_refine_ls_R_factor_all 0.033
loop_
_symmetry_equiv_pos_site_id
_symmetry_equiv_pos_as_xyz
1 'y+1/2, x+1/2, -z'
2 '-y, x+1/2, -z'
3 'y+1/2, -x, -z'
4 '-y, -x, -z'
5 'x+1/2, y+1/2, -z'
6 '-x, y+1/2, -z'
7 'x+1/2, -y, -z'
8 '-x, -y, -z'
9 '-y+1/2, -x+1/2, z'
10 'y, -x+1/2, z'
11 '-y+1/2, x, z'
12 'y, x, z'
13 '-x+1/2, -y+1/2, z'
14 'x, -y+1/2, z'
15 '-x+1/2, y, z'
16 'x, y, z'
loop_
_atom_type_symbol
_atom_type_oxidation_number
La3+ 3
Na1+ 1
Cu2+ 2.24
O2- -2
loop_
_atom_site_label
_atom_site_type_symbol
_atom_site_symmetry_multiplicity
_atom_site_Wyckoff_symbol
_atom_site_fract_x
_atom_site_fract_y
_atom_site_fract_z
_atom_site_B_iso_or_equiv
_atom_site_occupancy
_atom_site_attached_hydrogens
La1 La3+ 2 c 0.25 0.25 0.8889(1) . 1. 0
La2 La3+ 2 c 0.25 0.25 0.6090(1) . 0.88 0
Na1 Na1+ 2 c 0.25 0.25 0.6090(1) . 0.12 0
Cu1 Cu2+ 2 c 0.75 0.75 0.7487(3) . 1. 0
O1 O2- 4 f 0.75 0.25 0.7513(8) 0.8(1) 1. 0
O2 O2- 2 c 0.25 0.25 0.4348(14) 1.5(4) 1. 0
O3 O2- 2 c 0.25 0.25 0.0666(17) 2.2(5) 1. 0
loop_
_atom_site_aniso_label
_atom_site_aniso_type_symbol
_atom_site_aniso_U_11
_atom_site_aniso_U_22
_atom_site_aniso_U_33
_atom_site_aniso_U_12
_atom_site_aniso_U_13
_atom_site_aniso_U_23
La1 La3+ 0.0076(10) 0.0076(10) 0.0086(7) 0 0 0
La2 La3+ 0.0099(12) 0.0099(12) 0.0115(8) 0 0 0
Na1 Na1+ 0.0099(12) 0.0099(12) 0.0115(8) 0 0 0
Cu1 Cu2+ 0.0047(7) 0.0047(7) 0.016(1) 0 0 0
#End of TTdata_75440-ICSD