
#(C) 2019 by FIZ Karlsruhe - Leibniz Institute for Information Infrastructure.  All rights reserved.
data_75507-ICSD
_database_code_ICSD 75507
_audit_creation_date 1996-04-22
_chemical_name_systematic 'Disodium zinc bis(hydrogenphosphate(V)) tetrahydrate'
_chemical_formula_structural 'Na2 Zn (H P O4)2 (H2 O)4'
_chemical_formula_sum 'H10 Na2 O12 P2 Zn1'
_exptl_crystal_density_diffrn 2.32
_cell_measurement_temperature 298.
_publ_section_title

;
Preparation and crystal structure of Na2 Zn (H P O4)2 . 4 (H2 O), a new
layered sodium zinc phosphate containing "bifurcated" tetrahedral 12-rings
;
loop_
_citation_id
_citation_journal_full
_citation_year
_citation_journal_volume
_citation_page_first
_citation_page_last
_citation_journal_id_ASTM
primary 'Journal of Solid State Chemistry' 1994 113 168 175 JSSCBI
loop_
_publ_author_name
'Harrison, W.T.A.'
'Nenoff, T.M.'
'Gier, T.E.'
'Stucky, G.D.'
_cell_length_a 8.947(2)
_cell_length_b 13.254(2)
_cell_length_c 10.098(2)
_cell_angle_alpha 90.
_cell_angle_beta 116.358(6)
_cell_angle_gamma 90.
_cell_volume 1072.97
_cell_formula_units_Z 4
_symmetry_space_group_name_H-M 'P 1 21/c 1'
_symmetry_Int_Tables_number 14
_refine_ls_R_factor_all 0.042
loop_
_symmetry_equiv_pos_site_id
_symmetry_equiv_pos_as_xyz
1 'x, -y+1/2, z+1/2'
2 '-x, -y, -z'
3 '-x, y+1/2, -z+1/2'
4 'x, y, z'
loop_
_atom_type_symbol
_atom_type_oxidation_number
Na1+ 1
Zn2+ 2
P5+ 5
O2- -2
H1+ 1
loop_
_atom_site_label
_atom_site_type_symbol
_atom_site_symmetry_multiplicity
_atom_site_Wyckoff_symbol
_atom_site_fract_x
_atom_site_fract_y
_atom_site_fract_z
_atom_site_B_iso_or_equiv
_atom_site_occupancy
_atom_site_attached_hydrogens
Na1 Na1+ 4 e 0.1632(3) 0.9663(2) 0.3589(3) . 1. 0
Na2 Na1+ 4 e 0.3201(3) 0.7748(2) 0.1988(3) . 1. 0
Zn1 Zn2+ 4 e 0.59604(8) 0.84017(5) 0.03728(7) . 1. 0
P1 P5+ 4 e 0.2564(2) 0.9385(1) 0.8895(2) . 1. 0
P2 P5+ 4 e 0.7258(2) 0.6865(1) 0.2950(2) . 1. 0
O1 O2- 4 e 0.3702(5) 0.8561(3) 0.8807(4) . 1. 0
O2 O2- 4 e 0.6989(5) 0.9587(3) 0.1509(4) . 1. 0
O3 O2- 4 e 0.5777(5) 0.7378(3) 0.1700(4) . 1. 0
O4 O2- 4 e 0.7297(5) 0.7883(3) -.0562(4) . 1. 0
O5 O2- 4 e 0.2561(5) 0.9373(3) 0.0389(4) . 1. 0
O6 O2- 4 e 0.0760(5) 0.9164(3) 0.7627(4) . 1. 0
O7 O2- 4 e 0.7020(6) 0.5699(3) 0.2666(5) . 1. 0
O8 O2- 4 e 0.8891(5) 0.7180(3) 0.2944(5) . 1. 0
O9 O2- 4 e 0.2514(6) 0.0729(3) 0.5582(5) . 1. 0
O10 O2- 4 e 0.9417(6) 0.1473(4) 0.8354(5) . 1. 0
O11 O2- 4 e 0.8735(5) 0.1603(4) 0.4900(5) . 1. 0
O12 O2- 4 e 0.5814(5) 0.1148(3) 0.5890(5) . 1. 0
H1 H1+ 4 e 0.025(5) 0.861(5) 0.786(5) 0.09(1) 1. 0
H2 H1+ 4 e 0.72(1) 0.534(1) 0.353(3) 0.09(1) 1. 0
H3 H1+ 4 e 0.26(1) 0.144(1) 0.556(9) 0.09(1) 1. 0
H4 H1+ 4 e 0.27(1) 0.058(6) 0.656(4) 0.09(1) 1. 0
H5 H1+ 4 e 0.95(1) 0.104(6) 0.913(6) 0.09(1) 1. 0
H6 H1+ 4 e 0.039(7) 0.188(6) 0.876(8) 0.09(1) 1. 0
H7 H1+ 4 e 0.961(8) 0.203(6) 0.553(8) 0.09(1) 1. 0
H8 H1+ 4 e 0.91(1) 0.134(7) 0.422(8) 0.09(1) 1. 0
H9 H1+ 4 e 0.538(9) 0.147(6) 0.495(6) 0.09(1) 1. 0
H10 H1+ 4 e 0.490(6) 0.078(6) 0.589(9) 0.09(1) 1. 0
loop_
_atom_site_aniso_label
_atom_site_aniso_type_symbol
_atom_site_aniso_U_11
_atom_site_aniso_U_22
_atom_site_aniso_U_33
_atom_site_aniso_U_12
_atom_site_aniso_U_13
_atom_site_aniso_U_23
Na1 Na1+ 0.028(1) 0.024(1) 0.030(1) 0.002(1) 0.013(1) -.001(1)
Na2 Na1+ 0.027(1) 0.030(1) 0.029(1) 0.002(1) 0.013(1) 0.002(1)
Zn1 Zn2+ 0.0164(3) 0.0171(3) 0.0191(3) -.0006(3) 0.0091(3) 0.0001(3)
P1 P5+ 0.0159(7) 0.0144(7) 0.0186(7) -.0008(6) 0.0079(6) -.0009(6)
P2 P5+ 0.0152(7) 0.0162(7) 0.0163(7) 0.0001(5) 0.0080(6) 0.0000(5)
O1 O2- 0.017(2) 0.019(2) 0.029(2) 0.003(2) 0.006(2) -.005(2)
O2 O2- 0.027(2) 0.020(2) 0.024(2) -.007(2) 0.013(2) -.002(2)
O3 O2- 0.017(2) 0.022(2) 0.021(2) 0.002(2) 0.009(2) 0.006(2)
O4 O2- 0.022(2) 0.021(2) 0.022(2) 0.004(2) 0.013(2) 0.004(2)
O5 O2- 0.038(3) 0.023(2) 0.024(2) -.004(2) 0.018(2) -.001(2)
O6 O2- 0.017(2) 0.019(2) 0.026(2) -.003(2) 0.007(2) -.002(2)
O7 O2- 0.037(3) 0.015(2) 0.028(2) 0.000(2) 0.020(2) -.001(2)
O8 O2- 0.015(2) 0.025(2) 0.030(2) -.001(2) 0.013(2) -.003(2)
O9 O2- 0.050(3) 0.026(2) 0.032(3) -.010(2) 0.022(2) -.006(2)
O10 O2- 0.021(2) 0.051(3) 0.041(3) -.002(2) 0.009(2) -.011(2)
O11 O2- 0.030(2) 0.034(3) 0.031(2) -.002(2) 0.015(2) -.002(2)
O12 O2- 0.019(2) 0.031(2) 0.029(2) 0.004(2) 0.006(2) 0.006(2)
#End of TTdata_75507-ICSD