
#(C) 2019 by FIZ Karlsruhe - Leibniz Institute for Information Infrastructure.  All rights reserved.
data_75582-ICSD
_database_code_ICSD 75582
_audit_creation_date 1996-04-22
_chemical_name_systematic 'Trisodium yttrium catena-hexasilicate'
_chemical_formula_structural 'Na3 Y (Si6 O15)'
_chemical_formula_sum 'Na3 O15 Si6 Y1'
_chemical_name_structure_type Tuhualite
_exptl_crystal_density_diffrn 2.7
_publ_section_title

;
Preparation et affinement de la structure d'un silicate a double chaines
d'yttrium et de trisodium
;
loop_
_citation_id
_citation_journal_full
_citation_year
_citation_journal_volume
_citation_page_first
_citation_page_last
_citation_journal_id_ASTM
primary 'Materials Research Bulletin' 1994 29 427 436 MRBUAC
loop_
_publ_author_name
'Bourguiba, N.F.'
'Dogguy Smiri, L.'
_cell_length_a 14.744(8)
_cell_length_b 17.8440(80)
_cell_length_c 10.610(3)
_cell_angle_alpha 90.
_cell_angle_beta 90.
_cell_angle_gamma 90.
_cell_volume 2791.41
_cell_formula_units_Z 8
_symmetry_space_group_name_H-M 'C m c a'
_symmetry_Int_Tables_number 64
_refine_ls_R_factor_all 0.048
loop_
_symmetry_equiv_pos_site_id
_symmetry_equiv_pos_as_xyz
1 '-x, -y+1/2, z+1/2'
2 '-x, y+1/2, -z+1/2'
3 '-x, y, z'
4 '-x, -y, -z'
5 'x, y+1/2, -z+1/2'
6 'x, -y+1/2, z+1/2'
7 'x, -y, -z'
8 'x, y, z'
9 '-x+1/2, -y, z+1/2'
10 '-x+1/2, y, -z+1/2'
11 '-x+1/2, y+1/2, z'
12 '-x+1/2, -y+1/2, -z'
13 'x+1/2, y, -z+1/2'
14 'x+1/2, -y, z+1/2'
15 'x+1/2, -y+1/2, -z'
16 'x+1/2, y+1/2, z'
loop_
_atom_type_symbol
_atom_type_oxidation_number
Y3+ 3
Si4+ 4
Na1+ 1
O2- -2
loop_
_atom_site_label
_atom_site_type_symbol
_atom_site_symmetry_multiplicity
_atom_site_Wyckoff_symbol
_atom_site_fract_x
_atom_site_fract_y
_atom_site_fract_z
_atom_site_B_iso_or_equiv
_atom_site_occupancy
_atom_site_attached_hydrogens
Y1 Y3+ 8 e 0.25 0.0894 0.75 . 1. 0
Si1 Si4+ 16 g 0.1100(1) 0.0822(1) 0.1995(1) . 1. 0
Si2 Si4+ 16 g 0.1072(1) 0.1905(1) 0.9664(2) . 1. 0
Si3 Si4+ 16 g 0.1075(1) 0.1352(1) 0.4790(1) . 1. 0
Na1 Na1+ 8 f 0 0.4258(2) 0.2470(6) . 1. 0
Na2 Na1+ 8 d 0.2382(3) 0.5 0.5 . 1. 0
Na3 Na1+ 8 e 0.25 0.2233(2) 0.25 . 1. 0
O1 O2- 8 f 0 0.0734(3) 0.2020(5) . 1. 0
O2 O2- 8 f 0 0.1131(3) 0.4892(5) . 1. 0
O3 O2- 16 g 0.3587(3) 0.1403(2) 0.4114(4) . 1. 0
O4 O2- 8 f 0 0.1702(3) 0.9402(5) . 1. 0
O5 O2- 16 g 0.3461(3) 0.5020(2) 0.1800(4) . 1. 0
O6 O2- 16 g 0.1630(3) 0.4142(2) 0.0768(3) . 1. 0
O7 O2- 16 g 0.1177(3) 0.2762(2) 0.0125(4) . 1. 0
O8 O2- 16 g 0.1413 0.1242(2) 0.3320(4) . 1. 0
O9 O2- 16 g 0.1640(3) 0.3247(2) 0.3413(3) . 1. 0
loop_
_atom_site_aniso_label
_atom_site_aniso_type_symbol
_atom_site_aniso_beta_11
_atom_site_aniso_beta_22
_atom_site_aniso_beta_33
_atom_site_aniso_beta_12
_atom_site_aniso_beta_13
_atom_site_aniso_beta_23
Y1 Y3+ 0.0008 0.0004 0.0013 0 -.0001 0
Si1 Si4+ 0.0008(1) 0.0005 0.0015(1) 0.0001(1) -.0001(1) 0.0000(1)
Si2 Si4+ 0.0008(1) 0.0004 0.0018(1) 0.0001(1) 0.0001(1) 0.0001(1)
Si3 Si4+ 0.0008(1) 0.0005 0.0015(1) 0.0001 0.0000(1) 0.0000(1)
Na1 Na1+ 0.0067(3) 0.0019(1) 0.0085(4) 0 0 -.0010(3)
Na2 Na1+ 0.0021(3) 0.0021(1) 0.0031(3) 0 0 -.0012(2)
Na3 Na1+ 0.0041(2) 0.0007(1) 0.0094(4) 0 0.0035(4) 0
O1 O2- 0.0009(2) 0.0013(2) 0.0032(5) 0 0 0.0001(2)
O2 O2- 0.0013(3) 0.0014(2) 0.0029(6) 0 0 -.0002(3)
O3 O2- 0.0017(2) 0.0010(1) 0.0021(3) 0.0000(1) -.0001(2) -.0008(2)
O4 O2- 0.0014(3) 0.0011(2) 0.0031(5) 0 0 0.0001(3)
O5 O2- 0.0014(2) 0.0007(1) 0.0030(4) -.0003(1) 0.0000(2) 0.0002(2)
O6 O2- 0.0017(2) 0.0006(1) 0.0028(3) -.0002(2) -.0010(2) 0.0001(2)
O7 O2- 0.0030(2) 0.0004(1) 0.0031(4) 0.0000(2) 0.0002(3) 0.0000(2)
O8 O2- 0.0013(2) 0.0009(1) 0.0020(3) -.0004(1) 0.0001(2) -.0002(2)
O9 O2- 0.0016(2) 0.0008(1) 0.0021(3) -.0004(1) 0.0007(2) 0.0000(2)
#End of TTdata_75582-ICSD