
#(C) 2019 by FIZ Karlsruhe - Leibniz Institute for Information Infrastructure.  All rights reserved.
data_75594-ICSD
_database_code_ICSD 75594
_audit_creation_date 1996-04-22
_chemical_name_systematic 'Sodium diberyllium borate difluoride'
_chemical_formula_structural 'Na Be2 (B O3) F2'
_chemical_formula_sum 'B1 Be2 F2 Na1 O3'
_exptl_crystal_density_diffrn 2.38
_publ_section_title 'Crystal structure of sodium beryllium borate fluoride'
loop_
_citation_id
_citation_journal_full
_citation_year
_citation_journal_volume
_citation_page_first
_citation_page_last
_citation_journal_id_ASTM
primary 'Materials Research Bulletin' 1994 29 81 87 MRBUAC
loop_
_publ_author_name
'Mei, L.-F.'
'Wang, Y.-B.'
'Chen, C.-T.'
_cell_length_a 12.643(6)
_cell_length_b 8.729(6)
_cell_length_c 7.591(3)
_cell_angle_alpha 90.
_cell_angle_beta 113.6(3)
_cell_angle_gamma 90.
_cell_volume 767.68
_cell_formula_units_Z 8
_symmetry_space_group_name_H-M 'C 1 2 1'
_symmetry_Int_Tables_number 5
_refine_ls_R_factor_all 0.056
loop_
_symmetry_equiv_pos_site_id
_symmetry_equiv_pos_as_xyz
1 '-x, y, -z'
2 'x, y, z'
3 '-x+1/2, y+1/2, -z'
4 'x+1/2, y+1/2, z'
loop_
_atom_type_symbol
_atom_type_oxidation_number
Na1+ 1
F1- -1
O2- -2
B3+ 3
Be2+ 2
loop_
_atom_site_label
_atom_site_type_symbol
_atom_site_symmetry_multiplicity
_atom_site_Wyckoff_symbol
_atom_site_fract_x
_atom_site_fract_y
_atom_site_fract_z
_atom_site_B_iso_or_equiv
_atom_site_occupancy
_atom_site_attached_hydrogens
Na1 Na1+ 2 a 0.5 0.0969 0 . 1. 0
Na2 Na1+ 2 b 0.5 0.242(2) 0.5 . 1. 0
Na3 Na1+ 2 a 0 0.178(2) 0 . 1. 0
Na4 Na1+ 2 b 0 0.339(2) 0.5 . 1. 0
F1 F1- 4 c 0.0656(8) 0.161(2) 0.741(2) . 1. 0
F2 F1- 4 c 0.0879(8) 0.392(2) 0.195(1) . 1. 0
F3 F1- 4 c 0.4054(8) 0.039(2) 0.310(1) . 1. 0
F4 F1- 4 c 0.4425(8) 0.283(2) 0.745(2) . 1. 0
O1 O2- 4 c 0.2353(9) 0.247(2) 0.491(1) 0.8(2) 1. 0
O2 O2- 4 c 0.2767(8) 0.253(2) 0.862(1) 0.8(2) 1. 0
O3 O2- 4 c 0.2096(8) 0.013(2) 0.629(1) 1.0(2) 1. 0
O4 O2- 4 c 0.2276(8) -.008(2) 0.986(1) 0.7(2) 1. 0
O5 O2- 4 c 0.2043(8) 0.011(2) 0.319(1) 1.0(2) 1. 0
O6 O2- 4 c 0.261(1) 0.259(2) 0.162(1) 1.1(2) 1. 0
B1 B3+ 4 c 0.213(2) 0.091(2) 0.477(3) 0.9(4) 1. 0
B2 B3+ 4 c 0.276(2) 0.337(2) 0.011(3) 0.9(4) 1. 0
Be1 Be2+ 4 c 0.315(2) 0.325(3) 0.701(3) 0.6(4) 1. 0
Be2 Be2+ 4 c 0.216(2) 0.349(3) 0.305(3) 0.4(4) 1. 0
Be3 Be2+ 4 c 0.196(2) 0.096(3) 0.799(4) 1.4(5) 1. 0
Be4 Be2+ 4 c 0.280(2) 0.072(3) 0.197(3) 0.7(4) 1. 0
loop_
_atom_site_aniso_label
_atom_site_aniso_type_symbol
_atom_site_aniso_U_11
_atom_site_aniso_U_22
_atom_site_aniso_U_33
_atom_site_aniso_U_12
_atom_site_aniso_U_13
_atom_site_aniso_U_23
Na1 Na1+ 0.046 0.025 0.032 0 -.013 0
Na2 Na1+ 0.031 0.031 0.027 0 0.012 0
Na3 Na1+ 0.012 0.075 0.028 0 0.01 0
Na4 Na1+ 0.04 0.02 0.071 0 -.013 0
F1 F1- 0.019 0.042 0.033 -.004 0.014 0.005
F2 F1- 0.005 0.05 0.037 0.001 0.002 0.003
F3 F1- 0.028 0.018 0.03 0.011 0.006 0.007
F4 F1- 0.036 0.014 0.027 0.012 0.021 0
#End of TTdata_75594-ICSD