
#(C) 2019 by FIZ Karlsruhe - Leibniz Institute for Information Infrastructure.  All rights reserved.
data_75620-ICSD
_database_code_ICSD 75620
_audit_creation_date 1996-04-22
_audit_update_record 2007-08-01
_chemical_name_systematic 'Sodium cerium lanthanum phosphate(V) (3/0.55/0.45/2)'
_chemical_formula_structural 'Na3 (Ce0.55 La0.45) (P O4)2'
_chemical_formula_sum 'Ce0.55 La0.45 Na3 O8 P2'
_chemical_name_mineral 'Vitusite-Ce) (subcell)'
_exptl_crystal_density_diffrn 3.78
_publ_section_title

;
The crystal structure of vitusite from Illimaussaq (South Greenland): Na3 REE
(P O4)2
;
loop_
_citation_id
_citation_journal_full
_citation_year
_citation_journal_volume
_citation_page_first
_citation_page_last
_citation_journal_id_ASTM
primary 'Neues Jahrbuch fuer Mineralogie, Monatshefte' 1994 1994 49 66 NJMMAW
loop_
_publ_author_name
'Mazzi, F.'
'Ungaretti, L.'
_cell_length_a 5.3356(8)
_cell_length_b 18.6722(9)
_cell_length_c 14.0546(9)
_cell_angle_alpha 90.
_cell_angle_beta 90.
_cell_angle_gamma 90.
_cell_volume 1400.22
_cell_formula_units_Z 8
_symmetry_space_group_name_H-M 'P c 21 b'
_symmetry_Int_Tables_number 29
_refine_ls_R_factor_all 0.032
loop_
_symmetry_equiv_pos_site_id
_symmetry_equiv_pos_as_xyz
1 '-x, y, z+1/2'
2 'x, y+1/2, -z+1/2'
3 '-x, y+1/2, -z'
4 'x, y, z'
loop_
_atom_type_symbol
_atom_type_oxidation_number
Ce3+ 3
La3+ 3
Ce3+ 3
La3+ 3
Na1+ 1
P5+ 5
O2- -2
loop_
_atom_site_label
_atom_site_type_symbol
_atom_site_symmetry_multiplicity
_atom_site_Wyckoff_symbol
_atom_site_fract_x
_atom_site_fract_y
_atom_site_fract_z
_atom_site_B_iso_or_equiv
_atom_site_occupancy
_atom_site_attached_hydrogens
Ce1 Ce3+ 4 a 0.0506(2) 0.6133(2) 0.3837(1) 0.0278(3) 0.55 0
La1 La3+ 4 a 0.0506(2) 0.6133(2) 0.3837(1) 0.0278(3) 0.45 0
Ce2 Ce3+ 4 a 0.4669(2) 0.3871(2) 0.3658(1) 0.0254(2) 0.55 0
La2 La3+ 4 a 0.4669(2) 0.3871(2) 0.3658(1) 0.0254(2) 0.45 0
Na1 Na1+ 4 a 0.0038(12) 0.6405(5) 0.6326(5) 0.0194(20) 1. 0
Na2 Na1+ 4 a 0.4935(15) 0.3617(5) 0.1140(7) 0.0267(22) 1. 0
Na3 Na1+ 4 a 0.0020(9) 0.4580(5) 0.5492(7) 0.0230(23) 1. 0
Na4 Na1+ 4 a 0.5050(9) 0.5386(6) 0.2015(6) 0.0227(24) 1. 0
Na5 Na1+ 4 a -.0022(10) 0.2989(6) 0.7211(8) 0.0364(30) 1. 0
Na6 Na1+ 4 a 0.4703(12) 0.6989(6) 0.0274(8) 0.0402(33) 1. 0
P1 P5+ 4 a -.0093(5) 0.4634(3) 0.2684(4) 0.0127(13) 1. 0
P2 P5+ 4 a 0.5168(5) 0.5348(3) 0.4816(4) 0.0101(12) 1. 0
P3 P5+ 4 a -.0210(6) 0.2913(3) 0.4790(4) 0.011(1) 1. 0
P4 P5+ 4 a 0.5281(6) 0.7073(3) 0.2705(4) 0.0125(11) 1. 0
O1 O2- 4 a -.0057(16) 0.5408(9) 0.2350(12) 0.027(4) 1. 0
O2 O2- 4 a 0.5195(17) 0.4569(8) 0.5162(9) 0.019(3) 1. 0
O3 O2- 4 a 0.0099(25) 0.4644(11) 0.3761(9) 0.045(5) 1. 0
O4 O2- 4 a 0.4856(21) 0.5343(8) 0.3730(9) 0.032(4) 1. 0
O5 O2- 4 a 0.7454(16) 0.4277(6) 0.2370(11) 0.039(4) 1. 0
O6 O2- 4 a 0.7608(14) 0.5718(5) 0.5104(10) 0.031(3) 1. 0
O7 O2- 4 a 0.2081(15) 0.4227(5) 0.2244(7) 0.019(3) 1. 0
O8 O2- 4 a 0.2945(16) 0.5749(5) 0.5269(7) 0.021(3) 1. 0
O9 O2- 4 a 0.1086(30) 0.3086(8) 0.3862(11) 0.069(5) 1. 0
O10 O2- 4 a 0.3928(29) 0.6950(9) 0.3633(10) 0.065(5) 1. 0
O11 O2- 4 a 0.0108(14) 0.2113(7) 0.4995(9) 0.013(3) 1. 0
O12 O2- 4 a 0.5150(14) 0.7879(7) 0.2474(11) 0.020(3) 1. 0
O13 O2- 4 a 0.0829(32) 0.3377(7) 0.5593(12) 0.078(6) 1. 0
O14 O2- 4 a 0.4104(29) 0.6632(6) 0.1944(12) 0.069(5) 1. 0
O15 O2- 4 a 0.7013(15) 0.3101(5) 0.4685(8) 0.029(3) 1. 0
O16 O2- 4 a 0.8044(15) 0.6868(5) 0.2797(7) 0.027(3) 1. 0
#End of TTdata_75620-ICSD