
#(C) 2019 by FIZ Karlsruhe - Leibniz Institute for Information Infrastructure.  All rights reserved.
data_75909-ICSD
_database_code_ICSD 75909
_audit_creation_date 1996-04-22
_audit_update_record 1999-01-19
_chemical_name_systematic
'Octasodium tecto-hexaalumohexasilicate) dimanganate(VII)'
_chemical_formula_structural 'Na8 (Al6 Si6 O24) (Mn O4)2'
_chemical_formula_sum 'Al6 Mn2 Na8 O32 Si6'
_chemical_name_structure_type Sodalite-frame
_chemical_name_mineral 'Sodalite (permanganate)'
_exptl_crystal_density_diffrn 2.5
_cell_measurement_temperature 300.
_publ_section_title

;
Synthesis and structures of M8 (Al Si O4)6 . (X O4)2, M= Na, Li, K; X= Cl, Mn
sodalites
;
loop_
_citation_id
_citation_journal_full
_citation_year
_citation_journal_volume
_citation_page_first
_citation_page_last
_citation_journal_id_ASTM
primary Zeolites 1994 14 682 686 ZEOLD3
loop_
_publ_author_name
'Brenchley, M.E.'
'Weller, M.T.'
_cell_length_a 9.10811(5)
_cell_length_b 9.10811(5)
_cell_length_c 9.10811(5)
_cell_angle_alpha 90.
_cell_angle_beta 90.
_cell_angle_gamma 90.
_cell_volume 755.59
_cell_formula_units_Z 1
_symmetry_space_group_name_H-M 'P -4 3 n'
_symmetry_Int_Tables_number 218
_refine_ls_R_factor_all 0.0147
loop_
_symmetry_equiv_pos_site_id
_symmetry_equiv_pos_as_xyz
1 '-z+1/2, y+1/2, -x+1/2'
2 '-y+1/2, x+1/2, -z+1/2'
3 '-x+1/2, z+1/2, -y+1/2'
4 'z+1/2, -y+1/2, -x+1/2'
5 'y+1/2, -x+1/2, -z+1/2'
6 'x+1/2, -z+1/2, -y+1/2'
7 '-z+1/2, -y+1/2, x+1/2'
8 '-y+1/2, -x+1/2, z+1/2'
9 '-x+1/2, -z+1/2, y+1/2'
10 'z+1/2, y+1/2, x+1/2'
11 'y+1/2, x+1/2, z+1/2'
12 'x+1/2, z+1/2, y+1/2'
13 '-z, -x, y'
14 '-y, -z, x'
15 '-x, -y, z'
16 'z, -x, -y'
17 'y, -z, -x'
18 'x, -y, -z'
19 '-z, x, -y'
20 '-y, z, -x'
21 '-x, y, -z'
22 'z, x, y'
23 'y, z, x'
24 'x, y, z'
loop_
_atom_type_symbol
_atom_type_oxidation_number
Al3+ 3
Si4+ 4
O2- -2
Na1+ 1
Mn7+ 7
O2- -2
loop_
_atom_site_label
_atom_site_type_symbol
_atom_site_symmetry_multiplicity
_atom_site_Wyckoff_symbol
_atom_site_fract_x
_atom_site_fract_y
_atom_site_fract_z
_atom_site_B_iso_or_equiv
_atom_site_occupancy
_atom_site_attached_hydrogens
Al1 Al3+ 6 c 0.25 0.5 0 0.71(14) 1. 0
Si1 Si4+ 6 d 0.25 0 0.5 0.65(12) 1. 0
O1 O2- 24 i 0.1525(3) 0.1456(3) 0.4651(1) 1.53(2) 1. 0
Na1 Na1+ 8 e 0.2243(3) 0.2243(3) 0.2243(3) 3.78(8) 1. 0
Mn1 Mn7+ 2 a 0 0 0 2.68(12) 1. 0
O2 O2- 24 i 0.1413(27) 0.0833(23) 0.0028(15) 12.80(12) 0.3333 0
#End of TTdata_75909-ICSD