
#(C) 2019 by FIZ Karlsruhe - Leibniz Institute for Information Infrastructure.  All rights reserved.
data_76935-ICSD
_database_code_ICSD 76935
_audit_creation_date 2001-07-16
_chemical_name_systematic 'Tripotassium sodium dioxouranium carbonate'
_chemical_formula_structural 'K3 Na (U O2) (C O3)3'
_chemical_formula_sum 'C3 K3 Na1 O11 U1'
_exptl_crystal_density_diffrn 3.18
_publ_section_title 'La struttura cristallina del K3 Na (U O2) (C O3)3'
loop_
_citation_id
_citation_journal_full
_citation_year
_citation_journal_volume
_citation_page_first
_citation_page_last
_citation_journal_id_ASTM
primary 'Periodico di Mineralogia' 1961 30 19 42 PEMIA7
loop_
_publ_author_name
'Mazzi, F.'
'Rinaldi, F.'
_cell_length_a 9.29(2)
_cell_length_b 9.29
_cell_length_c 8.26(2)
_cell_angle_alpha 90.
_cell_angle_beta 90.
_cell_angle_gamma 120.
_cell_volume 617.37
_cell_formula_units_Z 2
_symmetry_space_group_name_H-M 'P -6 2 c'
_symmetry_Int_Tables_number 190
_refine_ls_R_factor_all 0.061
loop_
_symmetry_equiv_pos_site_id
_symmetry_equiv_pos_as_xyz
1 '-x, -x+y, -z'
2 'x-y, -y, -z'
3 'y, x, -z'
4 '-x, -x+y, z+1/2'
5 'x-y, -y, z+1/2'
6 'y, x, z+1/2'
7 '-x+y, -x, -z+1/2'
8 '-y, x-y, -z+1/2'
9 'x, y, -z+1/2'
10 '-x+y, -x, z'
11 '-y, x-y, z'
12 'x, y, z'
loop_
_atom_type_symbol
_atom_type_oxidation_number
U6+ 6
Na1+ 1
K1+ 1
C4+ 4
O2- -2
loop_
_atom_site_label
_atom_site_type_symbol
_atom_site_symmetry_multiplicity
_atom_site_Wyckoff_symbol
_atom_site_fract_x
_atom_site_fract_y
_atom_site_fract_z
_atom_site_B_iso_or_equiv
_atom_site_occupancy
_atom_site_attached_hydrogens
U1 U6+ 2 d 0.6667 0.3333 0.25 0.95 1. 0
Na1 Na1+ 2 c 0.3333 0.6667 0.25 1.9 1. 0
K1 K1+ 6 g 0.29 0 0 1.9 1. 0
C1 C4+ 6 h 0.382 0.36 0.25 1.9 1. 0
O1 O2- 6 h 0.525 0.491 0.25 1.9 1. 0
O2 O2- 6 h 0.367 0.215 0.25 1.9 1. 0
O3 O2- 6 h 0.25 0.37 0.25 1.9 1. 0
O4 O2- 4 f 0.6667 0.3333 0.04 1.9 1. 0
#End of TTdata_76935-ICSD