
#(C) 2019 by FIZ Karlsruhe - Leibniz Institute for Information Infrastructure.  All rights reserved.
data_77241-ICSD
_database_code_ICSD 77241
_audit_creation_date 2003-04-01
_chemical_name_systematic 'Sodium palladium undecafluorodizirconate'
_chemical_formula_structural 'Na Pd (Zr2 F11)'
_chemical_formula_sum 'F11 Na1 Pd1 Zr2'
_chemical_name_structure_type AgPdZr2F11
_exptl_crystal_density_diffrn 3.89
_publ_section_title

;
Synthese, Struktur und magnetische Eigenschaften der Verbindungen Na M(II) Zr2
F11 (M(II) = Ti, V und Cu) und einem Anhang ueber Na Pd Zr2 F11
;
loop_
_citation_id
_citation_journal_full
_citation_year
_citation_journal_volume
_citation_page_first
_citation_page_last
_citation_journal_id_ASTM
primary 'Zeitschrift fuer Anorganische und Allgemeine Chemie (1950) (DE)' 1996
622 1187 1194 ZAACAB
loop_
_publ_author_name
'Bialowons, H.'
'Mueller, B.G.'
_cell_length_a 9.220(1)
_cell_length_b 6.858(1)
_cell_length_c 7.821(1)
_cell_angle_alpha 90.
_cell_angle_beta 116.0(1)
_cell_angle_gamma 90.
_cell_volume 444.48
_cell_formula_units_Z 2
_symmetry_space_group_name_H-M 'C 1 2/m 1'
_symmetry_Int_Tables_number 12
_refine_ls_R_factor_all 0.023
loop_
_symmetry_equiv_pos_site_id
_symmetry_equiv_pos_as_xyz
1 '-x, y, -z'
2 '-x, -y, -z'
3 'x, -y, z'
4 'x, y, z'
5 '-x+1/2, y+1/2, -z'
6 '-x+1/2, -y+1/2, -z'
7 'x+1/2, -y+1/2, z'
8 'x+1/2, y+1/2, z'
loop_
_atom_type_symbol
_atom_type_oxidation_number
Na1+ 1
Pd4+ 4
Zr3+ 3
F1- -1
loop_
_atom_site_label
_atom_site_type_symbol
_atom_site_symmetry_multiplicity
_atom_site_Wyckoff_symbol
_atom_site_fract_x
_atom_site_fract_y
_atom_site_fract_z
_atom_site_B_iso_or_equiv
_atom_site_occupancy
_atom_site_attached_hydrogens
Na1 Na1+ 2 a 0 0 0 . 1. 0
Pd1 Pd4+ 2 c 0 0 0.5 . 1. 0
Zr1 Zr3+ 4 i 0.49928(3) 0 0.23120(4) . 1. 0
F1 F1- 2 d 0 0.5 0.5 . 1. 0
F2 F1- 4 g 0 0.3325(4) 0 . 1. 0
F3 F1- 4 i 0.2595(3) 0 0.6504(4) . 1. 0
F4 F1- 4 i 0.2647(3) 0 0.1092(5) . 1. 0
F5 F1- 8 j 0.0086(3) 0.2117(3) 0.3010(3) . 1. 0
loop_
_atom_site_aniso_label
_atom_site_aniso_type_symbol
_atom_site_aniso_U_11
_atom_site_aniso_U_22
_atom_site_aniso_U_33
_atom_site_aniso_U_12
_atom_site_aniso_U_13
_atom_site_aniso_U_23
Na1 Na1+ 0.012(2) 0.013(2) 0.075(3) 0 0.012(3) 0
Pd1 Pd4+ 0.0081(2) 0.0083(2) 0.0076(2) 0 0.0030(2) 0
Zr1 Zr3+ 0.0072(2) 0.0089(2) 0.0054(2) 0 0.0026(2) 0
F1 F1- 0.049(3) 0.024(2) 0.012(2) 0 0.020(2) 0
F2 F1- 0.038(2) 0.007(1) 0.013(1) 0 0.015(1) 0
F3 F1- 0.009(2) 0.0035(2) 0.028(2) 0 0.003(1) 0
F4 F1- 0.009(1) 0.039(2) 0.036(2) 0 0.005(2) 0
F5 F1- 0.0360(9) 0.0124(8) 0.0184(7) 0.0038(7) 0.0001(7) 0.0210(4)
#End of TTdata_77241-ICSD