
#(C) 2019 by FIZ Karlsruhe - Leibniz Institute for Information Infrastructure.  All rights reserved.
data_77421-ICSD
_database_code_ICSD 77421
_audit_creation_date 2003-04-01
_chemical_name_systematic 'Sodium tecto-alumotrisilicate'
_chemical_formula_structural 'Na (Al Si3 O8)'
_chemical_formula_sum 'Al1 Na1 O8 Si3'
_chemical_name_structure_type Feldspar#-(TC)-Albite-NaAlSi3O8
_chemical_name_mineral 'Albite low'
_exptl_crystal_density_diffrn 2.62
_publ_section_title

;
The high-pressure crystal chemistry of low albite and the origin of the
pressure dependency of Al-Si ordering
;
loop_
_citation_id
_citation_journal_full
_citation_year
_citation_journal_volume
_citation_page_first
_citation_page_last
_citation_journal_id_ASTM
primary 'American Mineralogist' 1994 79 1042 1052 AMMIAY
loop_
_publ_author_name
'Downs, R.T.'
'Hazen, R.M.'
'Finger, L.W.'
_cell_length_a 8.1372(6)
_cell_length_b 12.7867(15)
_cell_length_c 7.1574(6)
_cell_angle_alpha 94.245(9)
_cell_angle_beta 116.605(6)
_cell_angle_gamma 87.809(9)
_cell_volume 664.02
_cell_formula_units_Z 4
_symmetry_space_group_name_H-M 'C -1'
_symmetry_Int_Tables_number 2
_refine_ls_R_factor_all 0.031
loop_
_symmetry_equiv_pos_site_id
_symmetry_equiv_pos_as_xyz
1 '-x, -y, -z'
2 'x, y, z'
3 '-x+1/2, -y+1/2, -z'
4 'x+1/2, y+1/2, z'
loop_
_atom_type_symbol
_atom_type_oxidation_number
Al3+ 3
Si4+ 4
Na1+ 1
O2- -2
loop_
_atom_site_label
_atom_site_type_symbol
_atom_site_symmetry_multiplicity
_atom_site_Wyckoff_symbol
_atom_site_fract_x
_atom_site_fract_y
_atom_site_fract_z
_atom_site_B_iso_or_equiv
_atom_site_occupancy
_atom_site_attached_hydrogens
Al1 Al3+ 4 i 0.00887(8) 0.16835(4) 0.20845(8) . 1. 0
Si2 Si4+ 4 i 0.00370(7) 0.82030(4) 0.23707(7) . 1. 0
Si3 Si4+ 4 i 0.68161(7) 0.11020(4) 0.31483(8) . 1. 0
Si4 Si4+ 4 i 0.68158(7) 0.88176(4) 0.36040(8) . 1. 0
Na1 Na1+ 4 i 0.26823(14) 0.98930(9) 0.14611(17) . 1. 0
O1 O2- 4 i 0.00523(19) 0.13144(11) 0.96733(20) . 1. 0
O2 O2- 4 i 0.59186(18) 0.99705(10) 0.2804(2) . 1. 0
O3 O2- 4 i 0.81268(19) 0.10974(11) 0.19097(23) . 1. 0
O4 O2- 4 i 0.82013(19) 0.85090(12) 0.25848(24) . 1. 0
O5 O2- 4 i 0.01288(19) 0.30187(10) 0.27091(22) . 1. 0
O6 O2- 4 i 0.02337(19) 0.69355(10) 0.22885(22) . 1. 0
O7 O2- 4 i 0.20681(19) 0.10907(10) 0.38899(21) . 1. 0
O8 O2- 4 i 0.18403(20) 0.86804(11) 0.43600(22) . 1. 0
loop_
_atom_site_aniso_label
_atom_site_aniso_type_symbol
_atom_site_aniso_beta_11
_atom_site_aniso_beta_22
_atom_site_aniso_beta_33
_atom_site_aniso_beta_12
_atom_site_aniso_beta_13
_atom_site_aniso_beta_23
Al1 Al3+ 0.00334(9) 0.00102(3) 0.00386(11) -.00025(4) 0.00183(8) 0.00008(4)
Si2 Si4+ 0.00325(8) 0.00094(3) 0.00325(11) 0.00027(3) 0.00156(7) 0.00019(4)
Si3 Si4+ 0.00299(8) 0.00082(3) 0.00442(11) 0.00000(3) 0.00152(7) 0.00018(4)
Si4 Si4+ 0.00280(8) 0.00086(3) 0.00443(11) 0.00011(4) 0.00156(7) 0.00026(4)
Na1 Na1+ 0.00591(17) 0.00643(8) 0.01685(28) -.00089(9) 0.00407(17) -.00604(12)
O1 O2- 0.0071(3) 0.00163(8) 0.0049(3) 0.0000(1) 0.0034(2) 0.0005(1)
O2 O2- 0.0036(2) 0.00100(7) 0.0060(3) -.0001(1) 0.0014(2) 0.0004(1)
O3 O2- 0.0056(2) 0.00178(8) 0.0086(3) -.0006(1) 0.0043(2) -.0003(1)
O4 O2- 0.0058(3) 0.00233(8) 0.0112(4) 0.0009(1) 0.0058(3) 0.0003(1)
O5 O2- 0.0050(2) 0.00116(7) 0.0079(3) -.0003(1) 0.0027(2) 0.0000(1)
O6 O2- 0.0046(2) 0.00108(7) 0.0082(3) 0.0004(1) 0.0018(2) 0.0004(1)
O7 O2- 0.0054(2) 0.00172(8) 0.0048(3) 0.0005(1) 0.0011(2) 0.0004(1)
O8 O2- 0.0061(3) 0.00187(8) 0.0051(3) -.0005(1) 0.0004(2) -.0002(1)
#End of TTdata_77421-ICSD