
#(C) 2019 by FIZ Karlsruhe - Leibniz Institute for Information Infrastructure.  All rights reserved.
data_77422-ICSD
_database_code_ICSD 77422
_audit_creation_date 2003-04-01
_chemical_name_systematic 'Sodium tecto-alumotrisilicate'
_chemical_formula_structural 'Na (Al Si3 O8)'
_chemical_formula_sum 'Al1 Na1 O8 Si3'
_chemical_name_structure_type Feldspar#-(TC)-Albite-NaAlSi3O8
_chemical_name_mineral 'Albite low'
_exptl_crystal_density_diffrn 2.64
_cell_measurement_pressure 440000.
_publ_section_title

;
The high-pressure crystal chemistry of low albite and the origin of the
pressure dependency of Al-Si ordering
;
loop_
_citation_id
_citation_journal_full
_citation_year
_citation_journal_volume
_citation_page_first
_citation_page_last
_citation_journal_id_ASTM
primary 'American Mineralogist' 1994 79 1042 1052 AMMIAY
loop_
_publ_author_name
'Downs, R.T.'
'Hazen, R.M.'
'Finger, L.W.'
_cell_length_a 8.1104(13)
_cell_length_b 12.7710(15)
_cell_length_c 7.1482(21)
_cell_angle_alpha 94.244(29)
_cell_angle_beta 116.667(14)
_cell_angle_gamma 87.835(19)
_cell_volume 659.82
_cell_formula_units_Z 4
_symmetry_space_group_name_H-M 'C -1'
_symmetry_Int_Tables_number 2
_refine_ls_R_factor_all 0.0568
loop_
_symmetry_equiv_pos_site_id
_symmetry_equiv_pos_as_xyz
1 '-x, -y, -z'
2 'x, y, z'
3 '-x+1/2, -y+1/2, -z'
4 'x+1/2, y+1/2, z'
loop_
_atom_type_symbol
_atom_type_oxidation_number
Al3+ 3
Si4+ 4
Na1+ 1
O2- -2
loop_
_atom_site_label
_atom_site_type_symbol
_atom_site_symmetry_multiplicity
_atom_site_Wyckoff_symbol
_atom_site_fract_x
_atom_site_fract_y
_atom_site_fract_z
_atom_site_B_iso_or_equiv
_atom_site_occupancy
_atom_site_attached_hydrogens
Al1 Al3+ 4 i 0.0086(5) 0.1681(2) 0.2086(12) 0.66(4) 1. 0
Si2 Si4+ 4 i 0.0032(4) 0.8204(1) 0.2364(11) 0.65(4) 1. 0
Si3 Si4+ 4 i 0.6915(5) 0.1099(2) 0.3159(13) 0.58(4) 1. 0
Si4 Si4+ 4 i 0.6810(6) 0.8818(2) 0.3632(15) 0.58(4) 1. 0
Na1 Na1+ 4 i 0.2660(8) 0.9896(3) 0.1411(19) 3.6(7) 1. 0
O1 O2- 4 i 0.0067(11) 0.1315(4) 0.9689(27) 1.1(1) 1. 0
O2 O2- 4 i 0.5896(10) 0.9973(4) 0.2794(25) 0.72(9) 1. 0
O3 O2- 4 i 0.8119(11) 0.1091(4) 0.1914(26) 0.99(10) 1. 0
O4 O2- 4 i 0.8188(11) 0.8510(4) 0.2565(26) 1.18(10) 1. 0
O5 O2- 4 i 0.0107(10) 0.3015(4) 0.2698(25) 0.86(9) 1. 0
O6 O2- 4 i 0.0244(11) 0.6940(4) 0.2332(27) 1.02(9) 1. 0
O7 O2- 4 i 0.2032(15) 0.1085(4) 0.3777(35) 1.25(13) 1. 0
O8 O2- 4 i 0.1768(16) 0.8668(5) 0.4228(35) 1.42(11) 1. 0
loop_
_atom_site_aniso_label
_atom_site_aniso_type_symbol
_atom_site_aniso_U_11
_atom_site_aniso_U_22
_atom_site_aniso_U_33
_atom_site_aniso_U_12
_atom_site_aniso_U_13
_atom_site_aniso_U_23
Na1 Na1+ 0.0064(17) 0.0063(3) 0.031(13) -.0015(6) 0.0079(47) -.0068(13)
#End of TTdata_77422-ICSD