
#(C) 2019 by FIZ Karlsruhe - Leibniz Institute for Information Infrastructure.  All rights reserved.
data_78535-ICSD
_database_code_ICSD 78535
_audit_creation_date 1996-10-14
_chemical_name_systematic 'Sodium yttrium bis(molybdate)'
_chemical_formula_structural 'Na Y (Mo O4)2'
_chemical_formula_sum 'Mo2 Na1 O8 Y1'
_chemical_name_structure_type Scheelite-CaWO4
_exptl_crystal_density_diffrn 4.68
_publ_section_title

;
Crystal structures of two sodium yttrium molybdates: Na Y (Mo O4)2 and Na5 Y
(Mo O4)4
;
loop_
_citation_id
_citation_journal_full
_citation_year
_citation_journal_volume
_citation_page_first
_citation_page_last
_citation_journal_id_ASTM
primary 'Journal of Materials Chemistry' 1994 4 707 711 JMACEP
loop_
_publ_author_name
'Stedman, N.J.'
'Cheetham, A.K.'
'Battle, P.D.'
_cell_length_a 5.19890(5)
_cell_length_b 5.19890(5)
_cell_length_c 11.3299(1)
_cell_angle_alpha 90.
_cell_angle_beta 90.
_cell_angle_gamma 90.
_cell_volume 306.23
_cell_formula_units_Z 2
_symmetry_space_group_name_H-M 'I 41/a Z'
_symmetry_Int_Tables_number 88
_refine_ls_R_factor_all 0.0549
loop_
_symmetry_equiv_pos_site_id
_symmetry_equiv_pos_as_xyz
1 '-y+3/4, x+3/4, -z+3/4'
2 'y+1/4, -x+3/4, -z+3/4'
3 'x, y+1/2, -z'
4 '-x, -y, -z'
5 'y+1/4, -x+1/4, z+1/4'
6 '-y+3/4, x+1/4, z+1/4'
7 '-x, -y+1/2, z'
8 'x, y, z'
9 '-y+1/4, x+1/4, -z+1/4'
10 'y+3/4, -x+1/4, -z+1/4'
11 'x+1/2, y, -z+1/2'
12 '-x+1/2, -y+1/2, -z+1/2'
13 'y+3/4, -x+3/4, z+3/4'
14 '-y+1/4, x+3/4, z+3/4'
15 '-x+1/2, -y, z+1/2'
16 'x+1/2, y+1/2, z+1/2'
loop_
_atom_type_symbol
_atom_type_oxidation_number
Na1+ 1
Y3+ 3
Mo6+ 6
O2- -2
loop_
_atom_site_label
_atom_site_type_symbol
_atom_site_symmetry_multiplicity
_atom_site_Wyckoff_symbol
_atom_site_fract_x
_atom_site_fract_y
_atom_site_fract_z
_atom_site_B_iso_or_equiv
_atom_site_occupancy
_atom_site_attached_hydrogens
Na1 Na1+ 4 b 0.5 0.75 0.125 0.0076(6) 0.5 0
Y1 Y3+ 4 b 0.5 0.75 0.125 0.0076(6) 0.5 0
Mo1 Mo6+ 4 a 0 0.25 0.125 0.0055(4) 1. 0
O1 O2- 16 f 0.1464(7) 0.4813(7) 0.2122(3) 0.012(2) 1. 0
#End of TTdata_78535-ICSD