
#(C) 2019 by FIZ Karlsruhe - Leibniz Institute for Information Infrastructure.  All rights reserved.
data_78573-ICSD
_database_code_ICSD 78573
_audit_creation_date 1996-10-14
_audit_update_record 1999-06-02
_chemical_name_systematic 'Cesium sodium tecto-alumosilicate'
_chemical_formula_structural 'Cs10.31 Na3.24 (Al12 Si12 O48)'
_chemical_formula_sum 'Al12 Cs10.31 Na3.24 O48 Si12'
_chemical_name_structure_type Zeolite-A-frame
_chemical_name_mineral 'Zeolite A (Cs-exchanged, dehydrated, Cs-loaded)'
_exptl_crystal_density_diffrn 2.56
_publ_section_title
'Structure and electronic properties of cesium-loaded zeolite A'
loop_
_citation_id
_citation_journal_full
_citation_year
_citation_journal_volume
_citation_page_first
_citation_page_last
_citation_journal_id_ASTM
primary 'Journal of Physical Chemistry' 1994 98 9279 9284 JPCHAX
loop_
_publ_author_name
'Armstrong, A.R.'
'Anderson, P.A.'
'Woodall, L.J.'
'Edwards, P.P.'
_cell_length_a 12.30979(6)
_cell_length_b 12.30979(6)
_cell_length_c 12.30979(6)
_cell_angle_alpha 90.
_cell_angle_beta 90.
_cell_angle_gamma 90.
_cell_volume 1865.31
_cell_formula_units_Z 1
_symmetry_space_group_name_H-M 'P m -3 m'
_symmetry_Int_Tables_number 221
_refine_ls_R_factor_all 0.028
loop_
_symmetry_equiv_pos_site_id
_symmetry_equiv_pos_as_xyz
1 'z, y, -x'
2 'y, x, -z'
3 'x, z, -y'
4 'z, x, -y'
5 'y, z, -x'
6 'x, y, -z'
7 'z, -y, x'
8 'y, -x, z'
9 'x, -z, y'
10 'z, -x, y'
11 'y, -z, x'
12 'x, -y, z'
13 '-z, y, x'
14 '-y, x, z'
15 '-x, z, y'
16 '-z, x, y'
17 '-y, z, x'
18 '-x, y, z'
19 '-z, -y, -x'
20 '-y, -x, -z'
21 '-x, -z, -y'
22 '-z, -x, -y'
23 '-y, -z, -x'
24 '-x, -y, -z'
25 '-z, -y, x'
26 '-y, -x, z'
27 '-x, -z, y'
28 '-z, -x, y'
29 '-y, -z, x'
30 '-x, -y, z'
31 '-z, y, -x'
32 '-y, x, -z'
33 '-x, z, -y'
34 '-z, x, -y'
35 '-y, z, -x'
36 '-x, y, -z'
37 'z, -y, -x'
38 'y, -x, -z'
39 'x, -z, -y'
40 'z, -x, -y'
41 'y, -z, -x'
42 'x, -y, -z'
43 'z, y, x'
44 'y, x, z'
45 'x, z, y'
46 'z, x, y'
47 'y, z, x'
48 'x, y, z'
loop_
_atom_type_symbol
_atom_type_oxidation_number
Si4+ 4
Al3+ 3
O2- -2
Cs1+ 1
Cs0+ 0.15
Cs1+ 1
Na1+ 1
loop_
_atom_site_label
_atom_site_type_symbol
_atom_site_symmetry_multiplicity
_atom_site_Wyckoff_symbol
_atom_site_fract_x
_atom_site_fract_y
_atom_site_fract_z
_atom_site_B_iso_or_equiv
_atom_site_occupancy
_atom_site_attached_hydrogens
Si1 Si4+ 24 k 0 0.1846(2) 0.3720(2) . 0.5 0
Al1 Al3+ 24 k 0 0.1846(2) 0.3720(2) . 0.5 0
O1 O2- 12 h 0 0.2258(2) 0.5 . 1. 0
O2 O2- 12 i 0 0.2948(1) 0.2948(1) . 1. 0
O3 O2- 24 m 0.1123(1) 0.1123(1) 0.3430(1) . 1. 0
Cs1 Cs1+ 8 g 0.2734(6) 0.2734(6) 0.2734(6) . 0.53(2) 0
Cs2 Cs0+ 8 g 0.2931(11) 0.2931(11) 0.2931(11) . 0.22(2) 0
Cs3 Cs1+ 3 c 0 0.5 0.5 . 0.85(2) 0
Cs4 Cs1+ 8 g 0.0947(13) 0.0947(13) 0.0947(13) 8.90(14) 0.22(2) 0
Na1 Na1+ 8 g 0.2155(11) 0.2155(11) 0.2155(11) 4.6(6) 0.24(3) 0
Na2 Na1+ 12 j 0.2314(12) 0.2314(12) 0.5 0.3(5) 0.11(1) 0
loop_
_atom_site_aniso_label
_atom_site_aniso_type_symbol
_atom_site_aniso_B_11
_atom_site_aniso_B_22
_atom_site_aniso_B_33
_atom_site_aniso_B_12
_atom_site_aniso_B_13
_atom_site_aniso_B_23
Si1 Si4+ 1.29(7) 0.85(7) 0.57(7) 0 0 0.08(6)
Al1 Al3+ 1.29(7) 0.85(7) 0.57(7) 0 0 0.08(6)
O1 O2- 5.1(2) 2.9(1) 0.15(7) 0 0 0
O2 O2- 3.2(1) 0.71(4) 0.71(4) 0 0 0.71(4)
O3 O2- 1.86(4) 1.86(4) 3.4(3) 1.04(5) 0.13(5) 0.13(5)
Cs1 Cs1+ 2.5(2) 2.5(2) 2.5(2) -.4(2) -.4(2) -.4(2)
Cs2 Cs0+ 2.5(2) 2.5(2) 2.5(2) -.4(2) -.4(2) -.4(2)
Cs3 Cs1+ 3.7(4) 3.4(3) 3.4(3) 0 0 0
#End of TTdata_78573-ICSD