
#(C) 2019 by FIZ Karlsruhe - Leibniz Institute for Information Infrastructure.  All rights reserved.
data_78595-ICSD
_database_code_ICSD 78595
_audit_creation_date 1997-05-13
_chemical_name_systematic 'Tetrabarium copper(III) sodium dicarbonate oxide'
_chemical_formula_structural 'Ba4 Cu Na (C O3)2 O4'
_chemical_formula_sum 'C2 Ba4 Cu1 Na1 O10'
_chemical_name_structure_type CuLiSr4(CO3)2O4
_exptl_crystal_density_diffrn 5.17
_publ_section_title

;
Synthesis, single crystal growth and structural determination of new copper
oxycarbonates A4 Cu M (C O3)2 O4, A= Sr, Ba, M= Li, Na, Ca
;
loop_
_citation_id
_citation_journal_full
_citation_year
_citation_journal_volume
_citation_page_first
_citation_page_last
_citation_journal_id_ASTM
primary
'Physica C: Superconductivity and Ist Application (Amsterdam, Netherlands)' 1995 247 359 370 PHYCE6
loop_
_publ_author_name
'Calestani, G.'
'Ganguly, P.'
'Matacotta, F.C.'
'Nozar, P.'
'Migliori, A.'
'Thomas, K.A.'
'Tomasi, A.'
_cell_length_a 5.844(1)
_cell_length_b 5.844(1)
_cell_length_c 15.423(2)
_cell_angle_alpha 90.
_cell_angle_beta 90.
_cell_angle_gamma 90.
_cell_volume 526.73
_cell_formula_units_Z 2
_symmetry_space_group_name_H-M 'I 4/m m m'
_symmetry_Int_Tables_number 139
_refine_ls_R_factor_all 0.027
loop_
_symmetry_equiv_pos_site_id
_symmetry_equiv_pos_as_xyz
1 'y, x, -z'
2 '-y, -x, -z'
3 '-y, x, -z'
4 'y, -x, -z'
5 '-x, y, -z'
6 'x, -y, -z'
7 'x, y, -z'
8 '-x, -y, -z'
9 '-y, -x, z'
10 'y, x, z'
11 'y, -x, z'
12 '-y, x, z'
13 'x, -y, z'
14 '-x, y, z'
15 '-x, -y, z'
16 'x, y, z'
17 'y+1/2, x+1/2, -z+1/2'
18 '-y+1/2, -x+1/2, -z+1/2'
19 '-y+1/2, x+1/2, -z+1/2'
20 'y+1/2, -x+1/2, -z+1/2'
21 '-x+1/2, y+1/2, -z+1/2'
22 'x+1/2, -y+1/2, -z+1/2'
23 'x+1/2, y+1/2, -z+1/2'
24 '-x+1/2, -y+1/2, -z+1/2'
25 '-y+1/2, -x+1/2, z+1/2'
26 'y+1/2, x+1/2, z+1/2'
27 'y+1/2, -x+1/2, z+1/2'
28 '-y+1/2, x+1/2, z+1/2'
29 'x+1/2, -y+1/2, z+1/2'
30 '-x+1/2, y+1/2, z+1/2'
31 '-x+1/2, -y+1/2, z+1/2'
32 'x+1/2, y+1/2, z+1/2'
loop_
_atom_type_symbol
_atom_type_oxidation_number
Cu3+ 3
Na1+ 1
Ba2+ 2
C4+ 4
O2- -2
loop_
_atom_site_label
_atom_site_type_symbol
_atom_site_symmetry_multiplicity
_atom_site_Wyckoff_symbol
_atom_site_fract_x
_atom_site_fract_y
_atom_site_fract_z
_atom_site_B_iso_or_equiv
_atom_site_occupancy
_atom_site_attached_hydrogens
Cu1 Cu3+ 2 b 0.5 0.5 0 . 1. 0
Na1 Na1+ 2 a 0 0 0 . 1. 0
Ba1 Ba2+ 8 g 0 0.5 0.1171(1) . 1. 0
C1 C4+ 4 e 0 0 0.2353(7) . 1. 0
O1 O2- 8 h 0.7257(7) 0.7257(7) 0 . 1. 0
O2 O2- 4 e 0 0 0.1503(6) . 1. 0
O3 O2- 16 m 0.1333(21) 0.1333(21) 0.2719(9) . 0.5 0
loop_
_atom_site_aniso_label
_atom_site_aniso_type_symbol
_atom_site_aniso_U_11
_atom_site_aniso_U_22
_atom_site_aniso_U_33
_atom_site_aniso_U_12
_atom_site_aniso_U_13
_atom_site_aniso_U_23
Cu1 Cu3+ 0.000(1) 0.000(1) 0.003(1) 0 0 0
Na1 Na1+ 0.003(22) 0.003(2) 0.000(3) 0 0 0
Ba1 Ba2+ 0.005(1) 0.005(1) 0.002(1) 0 0 0
C1 C4+ 0.006(3) 0.006(3) 0.000(4) 0 0 0
O1 O2- 0.003(2) 0.003(2) 0.011(2) -.002(2) 0 0
O2 O2- 0.020(3) 0.020(3) 0.005(13) 0 0 0
O3 O2- 0.035(6) 0.035(6) 0.042(7) 0.016(7) -.028(5) -.028(5)
#End of TTdata_78595-ICSD