
#(C) 2019 by FIZ Karlsruhe - Leibniz Institute for Information Infrastructure.  All rights reserved.
data_78729-ICSD
_database_code_ICSD 78729
_audit_creation_date 1997-05-13
_chemical_name_systematic
'Sodium strontium titanium niobium oxide (0.3/0.7/0.7/0.3/3)'
_chemical_formula_structural '(Na0.3 Sr0.7) (Ti0.7 Nb0.3) O3'
_chemical_formula_sum 'Na0.3 Nb0.3 O3 Sr0.7 Ti0.7'
_chemical_name_structure_type CaSiO3(tI40)
_exptl_crystal_density_diffrn 4.9
_publ_section_title

;
Phase transition and crystal structure analysis using Rietveld method in the
(Na0.3 Sr0.7) (Ti0.7 M0.3) O3 (M= Ta, Nb) system
;
loop_
_citation_id
_citation_journal_full
_citation_year
_citation_journal_volume
_citation_page_first
_citation_page_last
_citation_journal_id_ASTM
primary 'Yoop Hakhoechi' 1995 32 582 586 YPHJAP
loop_
_publ_author_name
'Chung, H.-T.'
'Kim, H.-G.'
_cell_length_a 7.8336(2)
_cell_length_b 7.8336(2)
_cell_length_c 7.8400(3)
_cell_angle_alpha 90.
_cell_angle_beta 90.
_cell_angle_gamma 90.
_cell_volume 481.1
_cell_formula_units_Z 8
_symmetry_space_group_name_H-M 'I 4/m m m'
_symmetry_Int_Tables_number 139
_refine_ls_R_factor_all 0.029
loop_
_symmetry_equiv_pos_site_id
_symmetry_equiv_pos_as_xyz
1 'y, x, -z'
2 '-y, -x, -z'
3 '-y, x, -z'
4 'y, -x, -z'
5 '-x, y, -z'
6 'x, -y, -z'
7 'x, y, -z'
8 '-x, -y, -z'
9 '-y, -x, z'
10 'y, x, z'
11 'y, -x, z'
12 '-y, x, z'
13 'x, -y, z'
14 '-x, y, z'
15 '-x, -y, z'
16 'x, y, z'
17 'y+1/2, x+1/2, -z+1/2'
18 '-y+1/2, -x+1/2, -z+1/2'
19 '-y+1/2, x+1/2, -z+1/2'
20 'y+1/2, -x+1/2, -z+1/2'
21 '-x+1/2, y+1/2, -z+1/2'
22 'x+1/2, -y+1/2, -z+1/2'
23 'x+1/2, y+1/2, -z+1/2'
24 '-x+1/2, -y+1/2, -z+1/2'
25 '-y+1/2, -x+1/2, z+1/2'
26 'y+1/2, x+1/2, z+1/2'
27 'y+1/2, -x+1/2, z+1/2'
28 '-y+1/2, x+1/2, z+1/2'
29 'x+1/2, -y+1/2, z+1/2'
30 '-x+1/2, y+1/2, z+1/2'
31 '-x+1/2, -y+1/2, z+1/2'
32 'x+1/2, y+1/2, z+1/2'
loop_
_atom_type_symbol
_atom_type_oxidation_number
Na1+ 1
Sr2+ 2
Na1+ 1
Sr2+ 2
Na1+ 1
Sr2+ 2
Ti4+ 4
Nb5+ 5
O2- -2
loop_
_atom_site_label
_atom_site_type_symbol
_atom_site_symmetry_multiplicity
_atom_site_Wyckoff_symbol
_atom_site_fract_x
_atom_site_fract_y
_atom_site_fract_z
_atom_site_B_iso_or_equiv
_atom_site_occupancy
_atom_site_attached_hydrogens
Na1 Na1+ 2 a 0 0 0 0.96 0.3 0
Sr1 Sr2+ 2 a 0 0 0 0.96 0.7 0
Na2 Na1+ 2 b 0 0 0.5 0.96 0.3 0
Sr2 Sr2+ 2 b 0 0 0.5 0.96 0.7 0
Na3 Na1+ 4 c 0 0.5 0 0.96 0.3 0
Sr3 Sr2+ 4 c 0 0.5 0 0.96 0.7 0
Ti1 Ti4+ 8 f 0.25 0.25 0.25 0.463 0.7 0
Nb1 Nb5+ 8 f 0.25 0.25 0.25 0.463 0.3 0
O1 O2- 8 h 0.257(8) 0.257(8) 0 0.63 1. 0
O2 O2- 16 n 0 0.26(1) 0.258(6) 0.63 1. 0
#End of TTdata_78729-ICSD