
#(C) 2019 by FIZ Karlsruhe - Leibniz Institute for Information Infrastructure.  All rights reserved.
data_78764-ICSD
_database_code_ICSD 78764
_audit_creation_date 1997-05-13
_chemical_name_systematic 'Sodium hydrogensulfate - sulfuric acid (1/2)'
_chemical_formula_structural '(Na (H S O4)) (H2 S O4)2'
_chemical_formula_sum 'H5 Na1 O12 S3'
_exptl_crystal_density_diffrn 2.15
_publ_section_title

;
Synthese und Struktur neuer Natriumhydrogensulfate Na (H3 O) (H S O4)2; Na2 (H
S O4)2 (H2 S O4) und Na (H S O4) (H2 S O4)2
;
loop_
_citation_id
_citation_journal_full
_citation_year
_citation_journal_volume
_citation_page_first
_citation_page_last
_citation_journal_id_ASTM
primary 'Zeitschrift fuer Anorganische und Allgemeine Chemie (1950) (DE)' 1995
621 1617 1624 ZAACAB
loop_
_publ_author_name
'Troyanov, S.I.'
'Werner, C.'
'Kemnitz, E.'
'Worzala, H.'
_cell_length_a 5.084(1)
_cell_length_b 8.746(1)
_cell_length_c 11.765(3)
_cell_angle_alpha 68.86(2)
_cell_angle_beta 88.44(2)
_cell_angle_gamma 88.97(2)
_cell_volume 487.72
_cell_formula_units_Z 2
_symmetry_space_group_name_H-M 'P -1'
_symmetry_Int_Tables_number 2
_refine_ls_R_factor_all 0.035
loop_
_symmetry_equiv_pos_site_id
_symmetry_equiv_pos_as_xyz
1 '-x, -y, -z'
2 'x, y, z'
loop_
_atom_type_symbol
_atom_type_oxidation_number
Na1+ 1
S6+ 6
O2- -2
H1+ 1
loop_
_atom_site_label
_atom_site_type_symbol
_atom_site_symmetry_multiplicity
_atom_site_Wyckoff_symbol
_atom_site_fract_x
_atom_site_fract_y
_atom_site_fract_z
_atom_site_B_iso_or_equiv
_atom_site_occupancy
_atom_site_attached_hydrogens
Na1 Na1+ 2 i -.1202(2) 0.4772(1) 0.3442(1) 0.023(1) 1. 0
S1 S6+ 2 i 0.1755(1) 0.1734(1) 0.2139(1) 0.016(1) 1. 0
S2 S6+ 2 i 0.3700(1) 0.2420(1) 0.5366(1) 0.017(1) 1. 0
S3 S6+ 2 i 0.3532(1) 0.6516(1) 0.1283(1) 0.018(1) 1. 0
O1 O2- 2 i 0.1313(4) 0.2022(3) 0.0855(2) 0.026(1) 1. 0
O2 O2- 2 i 0.0336(4) 0.2852(3) 0.2565(2) 0.028(1) 1. 0
O3 O2- 2 i 0.1335(4) 0.0012(3) 0.2895(2) 0.024(1) 1. 0
O4 O2- 2 i 0.4766(4) 0.1947(3) 0.2223(2) 0.026(1) 1. 0
O5 O2- 2 i 0.5799(4) 0.2710(3) 0.4498(2) 0.035(1) 1. 0
O6 O2- 2 i 0.1770(4) 0.3683(3) 0.5190(2) 0.031(1) 1. 0
O7 O2- 2 i 0.4709(5) 0.2074(3) 0.6645(2) 0.033(1) 1. 0
O8 O2- 2 i 0.2421(5) 0.0845(3) 0.5403(2) 0.027(1) 1. 0
O9 O2- 2 i -.4506(4) 0.5324(3) 0.1863(2) 0.030(1) 1. 0
O10 O2- 2 i 0.1412(4) 0.6764(3) 0.2011(2) 0.029(1) 1. 0
O11 O2- 2 i 0.4782(5) 0.8197(3) 0.0653(2) 0.030(1) 1. 0
O12 O2- 2 i 0.2517(5) 0.6006(3) 0.0262(2) 0.027(1) 1. 0
H1 H1+ 2 i 0.510(7) 0.285(5) 0.237(3) 0.03(1) 1. 0
H2 H1+ 2 i 0.563(11) 0.156(7) 0.676(5) 0.06(2) 1. 0
H3 H1+ 2 i 0.169(9) 0.079(5) 0.588(4) 0.03(1) 1. 0
H4 H1+ 2 i -.414(9) 0.814(6) 0.027(4) 0.05(1) 1. 0
H5 H1+ 2 i 0.183(8) 0.650(5) -.003(4) 0.02(1) 1. 0
#End of TTdata_78764-ICSD