
#(C) 2019 by FIZ Karlsruhe - Leibniz Institute for Information Infrastructure.  All rights reserved.
data_78839-ICSD
_database_code_ICSD 78839
_audit_creation_date 1997-11-10
_chemical_name_systematic 'Sodium indium dicyanamide'
_chemical_formula_structural 'Na In (N C N)2'
_chemical_formula_sum 'C2 In1 N4 Na1'
_exptl_crystal_density_diffrn 3.48
_publ_section_title

;
In2.24 (N C N)3 and Na In (N C N)2: Synthesis and crystal structures of new
main group metal cyanamides
;
loop_
_citation_id
_citation_journal_full
_citation_year
_citation_journal_volume
_citation_page_first
_citation_page_last
_citation_journal_id_ASTM
primary 'Zeitschrift fuer Naturforschung, B: A Journal of Chemical Sciences'
1995 50 1245 1251 ZNBSEN
loop_
_publ_author_name
'Dronskowski, R.'
_cell_length_a 9.6130(6)
_cell_length_b 7.1684(5)
_cell_length_c 6.0365(4)
_cell_angle_alpha 90.
_cell_angle_beta 90.
_cell_angle_gamma 90.
_cell_volume 415.97
_cell_formula_units_Z 4
_symmetry_space_group_name_H-M 'C m c m'
_symmetry_Int_Tables_number 63
_refine_ls_R_factor_all 0.029
loop_
_symmetry_equiv_pos_site_id
_symmetry_equiv_pos_as_xyz
1 '-x, y, -z+1/2'
2 '-x, -y, z+1/2'
3 '-x, y, z'
4 '-x, -y, -z'
5 'x, -y, z+1/2'
6 'x, y, -z+1/2'
7 'x, -y, -z'
8 'x, y, z'
9 '-x+1/2, y+1/2, -z+1/2'
10 '-x+1/2, -y+1/2, z+1/2'
11 '-x+1/2, y+1/2, z'
12 '-x+1/2, -y+1/2, -z'
13 'x+1/2, -y+1/2, z+1/2'
14 'x+1/2, y+1/2, -z+1/2'
15 'x+1/2, -y+1/2, -z'
16 'x+1/2, y+1/2, z'
loop_
_atom_type_symbol
_atom_type_oxidation_number
In3+ 3
Na1+ 1
N3- -3
C4+ 4
loop_
_atom_site_label
_atom_site_type_symbol
_atom_site_symmetry_multiplicity
_atom_site_Wyckoff_symbol
_atom_site_fract_x
_atom_site_fract_y
_atom_site_fract_z
_atom_site_B_iso_or_equiv
_atom_site_occupancy
_atom_site_attached_hydrogens
In1 In3+ 4 c 0 0.3796(1) 0.25 . 1. 0
Na1 Na1+ 4 c 0 0.8802(7) 0.25 . 1. 0
N1 N3- 16 h 0.3695(9) 0.348(1) 0.892(2) 0.0156(17) 0.5 0
N2 N3- 16 h 0.3814(8) 0.101(1) 0.066(1) 0.0123(17) 0.5 0
C1 C4+ 16 h 0.2444(9) 0.369(2) 0.912(2) 0.0117(17) 0.5 0
loop_
_atom_site_aniso_label
_atom_site_aniso_type_symbol
_atom_site_aniso_U_11
_atom_site_aniso_U_22
_atom_site_aniso_U_33
_atom_site_aniso_U_12
_atom_site_aniso_U_13
_atom_site_aniso_U_23
In1 In3+ 0.0093(4) 0.0081(4) 0.0086(4) 0 0 0
Na1 Na1+ 0.0137(17) 0.0174(19) 0.0179(20) 0 0 0
#End of TTdata_78839-ICSD