
#(C) 2019 by FIZ Karlsruhe - Leibniz Institute for Information Infrastructure.  All rights reserved.
data_78907-ICSD
_database_code_ICSD 78907
_audit_creation_date 1997-11-10
_audit_update_record 2011-02-01
_chemical_name_systematic 'Cesium trisodium titanate'
_chemical_formula_structural 'Cs Na3 (Ti O4)'
_chemical_formula_sum 'Cs1 Na3 O4 Ti1'
_chemical_name_structure_type CsNa3TiO4
_exptl_crystal_density_diffrn 3.48
_publ_section_title 'Das neue Orthotitanat Cs Na3 (Ti O4)'
loop_
_citation_id
_citation_journal_full
_citation_year
_citation_journal_volume
_citation_page_first
_citation_page_last
_citation_journal_id_ASTM
primary 'Zeitschrift fuer Anorganische und Allgemeine Chemie (1950) (DE)' 1996
622 1715 1720 ZAACAB
loop_
_publ_author_name
'Weiss, C.'
'Hoppe, R.'
_cell_length_a 11.612(6)
_cell_length_b 8.549(3)
_cell_length_c 6.511(3)
_cell_angle_alpha 100.52(2)
_cell_angle_beta 108.84(3)
_cell_angle_gamma 91.61(3)
_cell_volume 598.8
_cell_formula_units_Z 4
_symmetry_space_group_name_H-M 'P -1'
_symmetry_Int_Tables_number 2
_refine_ls_R_factor_all 0.0467
loop_
_symmetry_equiv_pos_site_id
_symmetry_equiv_pos_as_xyz
1 '-x, -y, -z'
2 'x, y, z'
loop_
_atom_type_symbol
_atom_type_oxidation_number
Cs1+ 1
Ti4+ 4
Na1+ 1
O2- -2
loop_
_atom_site_label
_atom_site_type_symbol
_atom_site_symmetry_multiplicity
_atom_site_Wyckoff_symbol
_atom_site_fract_x
_atom_site_fract_y
_atom_site_fract_z
_atom_site_B_iso_or_equiv
_atom_site_occupancy
_atom_site_attached_hydrogens
Cs1 Cs1+ 2 i 0.1245(1) 0.3818(1) 0.0943(1) . 1. 0
Cs2 Cs1+ 2 i 0.3738(1) 0.1385(1) 0.3276(1) . 1. 0
Ti1 Ti4+ 2 i 0.1375(1) 0.2128(2) 0.5570(2) . 1. 0
Ti2 Ti4+ 2 i 0.3549(1) 0.7155(2) 0.1893(2) . 1. 0
Na1 Na1+ 2 i 0.3734(3) 0.9567(4) 0.8025(6) . 1. 0
Na2 Na1+ 2 i 0.1039(3) 0.9415(5) 0.8994(6) . 1. 0
Na3 Na1+ 2 i 0.1262(3) 0.5722(4) 0.6643(6) . 1. 0
Na4 Na1+ 2 i 0.3971(3) 0.5557(5) 0.5842(6) . 1. 0
Na5 Na1+ 2 i 0.1454(3) 0.8365(5) 0.3533(6) . 1. 0
Na6 Na1+ 2 i 0.3930(3) 0.3347(4) 0.8957(5) . 1. 0
O1 O2- 2 i 0.3547(5) 0.7990(7) 0.4642(9) . 1. 0
O2 O2- 2 i 0.9952(5) 0.6916(7) 0.4103(10) . 1. 0
O3 O2- 2 i 0.2467(5) 0.3768(7) 0.5759(9) . 1. 0
O4 O2- 2 i 0.4119(5) 0.5102(7) 0.2104(9) . 1. 0
O5 O2- 2 i 0.1022(5) 0.0846(7) 0.2844(9) . 1. 0
O6 O2- 2 i 0.1979(6) 0.7140(7) 0.0142(10) . 1. 0
O7 O2- 2 i 0.2137(5) 0.1121(7) 0.7796(10) . 1. 0
O8 O2- 2 i 0.4577(6) 0.8370(7) 0.1073(10) . 1. 0
loop_
_atom_site_aniso_label
_atom_site_aniso_type_symbol
_atom_site_aniso_U_11
_atom_site_aniso_U_22
_atom_site_aniso_U_33
_atom_site_aniso_U_12
_atom_site_aniso_U_13
_atom_site_aniso_U_23
Cs1 Cs1+ 0.0256(3) 0.0209(3) 0.0145(3) 0.0048(2) 0.0070(2) 0.0083(2)
Cs2 Cs1+ 0.0148(3) 0.0163(3) 0.0237(3) 0.0032(2) 0.0092(2) -.0005(2)
Ti1 Ti4+ 0.0106(7) 0.0089(7) 0.0098(7) 0.0009(5) 0.0041(5) 0.0020(5)
Ti2 Ti4+ 0.0109(7) 0.0098(7) 0.0096(7) 0.0037(6) 0.0049(5) 0.0026(5)
Na1 Na1+ 0.0209(19) 0.0190(18) 0.0143(17) 0.0076(14) 0.0068(14) 0.0032(14)
Na2 Na1+ 0.0162(19) 0.0193(19) 0.0267(20) 0.0011(15) 0.0083(16) 0.0124(15)
Na3 Na1+ 0.0194(19) 0.0137(17) 0.0165(17) 0.0082(14) 0.0065(15) 0.0018(14)
Na4 Na1+ 0.0174(19) 0.0194(20) 0.0214(18) 0.0003(15) 0.0050(15) 0.0101(15)
Na5 Na1+ 0.0165(19) 0.0212(19) 0.0299(20) 0.0070(15) 0.0132(16) 0.0132(16)
Na6 Na1+ 0.021(2) 0.0219(19) 0.0124(16) 0.0082(15) 0.0018(14) 0.0007(14)
O1 O2- 0.0149(28) 0.0162(30) 0.0117(27) 0.0048(23) 0.0039(22) 0.0025(22)
O2 O2- 0.0132(30) 0.016(3) 0.0262(32) 0.0070(24) 0.0122(25) 0.0107(25)
O3 O2- 0.0117(27) 0.0132(27) 0.0141(27) 0.0058(22) 0.0032(22) 0.0032(22)
O4 O2- 0.0198(31) 0.0149(30) 0.0129(27) 0.0050(24) 0.0062(23) -.0020(22)
O5 O2- 0.0183(30) 0.0160(31) 0.0123(27) 0.0071(23) 0.0085(23) 0.0070(23)
O6 O2- 0.0156(31) 0.0200(32) 0.0175(29) 0.0074(25) 0.0039(24) 0.0041(24)
O7 O2- 0.0151(30) 0.0198(31) 0.0230(31) 0.0062(24) 0.0093(25) 0.0136(25)
O8 O2- 0.0180(32) 0.0162(30) 0.0216(30) -.0006(24) 0.0084(25) 0.0029(24)
#End of TTdata_78907-ICSD