
#(C) 2019 by FIZ Karlsruhe - Leibniz Institute for Information Infrastructure.  All rights reserved.
data_78975-ICSD
_database_code_ICSD 78975
_audit_creation_date 1998-06-26
_audit_update_record 2012-02-01
_chemical_name_systematic 'Trirubidium sodium titanate'
_chemical_formula_structural 'Rb3 Na (Ti O4)'
_chemical_formula_sum 'Na1 O4 Rb3 Ti1'
_chemical_name_structure_type Rb3NaTiO4
_exptl_crystal_density_diffrn 3.77
_publ_section_title
'Unerwartete Strukturverwandtschaft: Das neue Orthotitanat Rb3 Na (Ti O4)'
loop_
_citation_id
_citation_journal_full
_citation_year
_citation_journal_volume
_citation_page_first
_citation_page_last
_citation_journal_id_ASTM
primary 'Zeitschrift fuer Anorganische und Allgemeine Chemie (1950) (DE)' 1996
622 603 610 ZAACAB
loop_
_publ_author_name
'Weiss, C.'
'Hoppe, R.'
_cell_length_a 10.763(3)
_cell_length_b 6.388(4)
_cell_length_c 10.889(7)
_cell_angle_alpha 90.
_cell_angle_beta 112.83(12)
_cell_angle_gamma 90.
_cell_volume 690.01
_cell_formula_units_Z 4
_symmetry_space_group_name_H-M 'P 1 21/c 1'
_symmetry_Int_Tables_number 14
_refine_ls_R_factor_all 0.0376
loop_
_symmetry_equiv_pos_site_id
_symmetry_equiv_pos_as_xyz
1 'x, -y+1/2, z+1/2'
2 '-x, -y, -z'
3 '-x, y+1/2, -z+1/2'
4 'x, y, z'
loop_
_atom_type_symbol
_atom_type_oxidation_number
Rb1+ 1
Ti4+ 4
Na1+ 1
O2- -2
loop_
_atom_site_label
_atom_site_type_symbol
_atom_site_symmetry_multiplicity
_atom_site_Wyckoff_symbol
_atom_site_fract_x
_atom_site_fract_y
_atom_site_fract_z
_atom_site_B_iso_or_equiv
_atom_site_occupancy
_atom_site_attached_hydrogens
Rb1 Rb1+ 4 e 0.0370(1) 0.1547(1) 0.1694(1) . 1. 0
Rb2 Rb1+ 4 e 0.3202(1) 0.8773(1) 0.3942(1) . 1. 0
Rb3 Rb1+ 4 e 0.4560(1) 0.3826(1) 0.3103(1) . 1. 0
Ti1 Ti4+ 4 e 0.2417(1) 0.1356(1) 0.9856(1) . 1. 0
Na1 Na1+ 4 e 0.1286(2) 0.6119(4) 0.1096(2) . 1. 0
O1 O2- 4 e 0.1142(4) 0.1622(7) 0.4612(4) . 1. 0
O2 O2- 4 e 0.4075(4) 0.2489(7) 0.5454(4) . 1. 0
O3 O2- 4 e 0.2080(4) 0.4778(7) 0.3232(4) . 1. 0
O4 O2- 4 e 0.2349(4) 0.5721(7) 0.5975(4) . 1. 0
loop_
_atom_site_aniso_label
_atom_site_aniso_type_symbol
_atom_site_aniso_U_11
_atom_site_aniso_U_22
_atom_site_aniso_U_33
_atom_site_aniso_U_12
_atom_site_aniso_U_13
_atom_site_aniso_U_23
Rb1 Rb1+ 0.0186(3) 0.0318(4) 0.0140(3) -.0064(3) 0.0077(3) -.0029(3)
Rb2 Rb1+ 0.0200(3) 0.0209(4) 0.0248(4) -.0014(3) 0.0071(3) -.0045(3)
Rb3 Rb1+ 0.0224(3) 0.0362(4) 0.0184(3) -.0061(3) 0.0120(3) -.0075(3)
Ti1 Ti4+ 0.0109(5) 0.0157(6) 0.0087(5) -.0009(4) 0.0041(4) -.0008(4)
Na1 Na1+ 0.0175(11) 0.0230(15) 0.0136(12) -.0013(11) 0.0043(10) -.0011(10)
O1 O2- 0.0199(21) 0.0269(26) 0.0123(21) -.0025(20) 0.0070(18) 0.0026(19)
O2 O2- 0.014(2) 0.0242(25) 0.0136(23) 0.0042(18) 0.0029(18) 0.0012(18)
O3 O2- 0.0155(20) 0.0233(25) 0.0120(21) -.0023(18) 0.0043(18) -.0006(19)
O4 O2- 0.0214(22) 0.0236(26) 0.0171(23) 0.0018(19) 0.0070(19) -.0044(19)
#End of TTdata_78975-ICSD