
#(C) 2019 by FIZ Karlsruhe - Leibniz Institute for Information Infrastructure.  All rights reserved.
data_79144-ICSD
_database_code_ICSD 79144
_audit_creation_date 1996-10-14
_audit_update_record 2008-02-01
_chemical_name_systematic 'Tetrasodium dicerium pentacarbonate'
_chemical_formula_structural 'Na4 Ce2 (C O3)5'
_chemical_formula_sum 'C5 Ce2 Na4 O15'
_chemical_name_mineral Petersenite-(Ce)
_exptl_crystal_density_diffrn 3.68
_publ_section_title

;
Petersenite-(Ce), a new mineral from Mont Saint-Hilaire, and its structural
relationship to other REE carbonates
;
loop_
_citation_id
_citation_journal_full
_citation_year
_citation_journal_volume
_citation_page_first
_citation_page_last
_citation_journal_id_ASTM
primary 'Canadian Mineralogist' 1994 32 405 414 CAMIA6
loop_
_publ_author_name
'Grice, J.D.'
'van Velthuizen, J.'
'Gault, R.A.'
_cell_length_a 20.8719(40)
_cell_length_b 6.367(1)
_cell_length_c 10.601(2)
_cell_angle_alpha 90.
_cell_angle_beta 120.50(1)
_cell_angle_gamma 90.
_cell_volume 1213.85
_cell_formula_units_Z 4
_symmetry_space_group_name_H-M 'P 1 21 1'
_symmetry_Int_Tables_number 4
_refine_ls_R_factor_all 0.035
loop_
_symmetry_equiv_pos_site_id
_symmetry_equiv_pos_as_xyz
1 '-x, y+1/2, -z'
2 'x, y, z'
loop_
_atom_type_symbol
_atom_type_oxidation_number
Na1+ 1
Ce3+ 3
C4+ 4
O2- -2
loop_
_atom_site_label
_atom_site_type_symbol
_atom_site_symmetry_multiplicity
_atom_site_Wyckoff_symbol
_atom_site_fract_x
_atom_site_fract_y
_atom_site_fract_z
_atom_site_B_iso_or_equiv
_atom_site_occupancy
_atom_site_attached_hydrogens
Na1 Na1+ 2 a 0.5812(2) 0.4996(16) 0.3247(3) 0.015(1) 1. 0
Na2 Na1+ 2 a 0.9187(2) 0.9940(16) 0.1620(4) 0.015(1) 1. 0
Na3 Na1+ 2 a 0.2332(3) 0.8037(8) 0.0356(4) 0.015(2) 1. 0
Na4 Na1+ 2 a 0.7562(3) 0.3159(8) 0.5245(4) 0.015(2) 1. 0
Na5 Na1+ 2 a 0.9776(2) 0.3071(8) 0.9731(4) 0.016(2) 1. 0
Na6 Na1+ 2 a 0.5225(2) 0.8085(8) 0.0187(4) 0.015(2) 1. 0
Na7 Na1+ 2 a 0.2667(3) 0.3030(8) 0.5694(4) 0.014(2) 1. 0
Na8 Na1+ 2 a 0.2562(2) 0.3164(8) 0.9880(4) 0.013(2) 1. 0
Ce1 Ce3+ 2 a 0.6583(1) 0 0.6419(1) 0.008(1) 1. 0
Ce2 Ce3+ 2 a 0.9206(1) 0.9968(3) 0.6556(1) 0.007(1) 1. 0
Ce3 Ce3+ 2 a 0.8417(1) 0.4975(3) 0.3254(1) 0.009(1) 1. 0
Ce4 Ce3+ 2 a 0.5794(1) 0.4979(3) 0.8144(1) 0.007(1) 1. 0
C1 C4+ 2 a 0.3293(5) -.0197(22) 0.8530(8) 0.009(2) 1. 0
C2 C4+ 2 a 0.8291(5) -.0208(22) 0.8080(9) 0.010(2) 1. 0
C3 C4+ 2 a 0.6966(5) 0.5334(16) 0.6840(8) 0.006(2) 1. 0
C4 C4+ 2 a -.0979(5) 0.5358(15) 0.0942(8) 0.005(2) 1. 0
C5 C4+ 2 a 0.1002(5) 0.0344(16) 0.3141(8) 0.007(2) 1. 0
C6 C4+ 2 a 0.8027(5) 0.0299(18) 0.2900(9) 0.009(22) 1. 0
C7 C4+ 2 a 0.5975(5) 0.0313(16) 0.2907(8) 0.006(2) 1. 0
C8 C4+ 2 a 0.0010(7) 0.8277(18) 0.5080(12) 0.012(2) 1. 0
C9 C4+ 2 a 0.5999(5) 0.0323(17) 0.8865(9) 0.008(2) 1. 0
C10 C4+ 2 a 0.5029(7) 0.8275(17) 0.4978(11) 0.009(2) 1. 0
O1 O2- 2 a 0.2945(3) -.0192(18) -.0760(6) 0.013(1) 1. 0
O2 O2- 2 a 0.4005(4) -.0275(14) -.0767(6) 0.011(1) 1. 0
O3 O2- 2 a 0.7086(4) 0.4743(15) 0.2899(6) 0.013(2) 1. 0
O4 O2- 2 a 0.9010(4) -.0258(15) 0.8795(6) 0.012(2) 1. 0
O5 O2- 2 a 0.7949(3) -.0155(20) 0.6663(6) 0.012(1) 1. 0
O6 O2- 2 a 0.7914(4) -.0260(15) 0.8716(6) 0.013(2) 1. 0
O7 O2- 2 a 0.7213(4) 0.3480(13) 0.7046(7) 0.010(1) 1. 0
O8 O2- 2 a 0.6841(4) 0.6374(13) 0.5699(7) 0.013(1) 1. 0
O9 O2- 2 a 0.6843(4) 0.6248(12) 0.7805(7) 0.012(1) 1. 0
O10 O2- 2 a 0.0366(4) 0.1279(13) 0.8708(7) 0.013(1) 1. 0
O11 O2- 2 a 0.1437(4) 0.1258(13) 0.8782(7) 0.013(2) 1. 0
O12 O2- 2 a 0.1106(5) 0.8518(15) 0.9613(8) 0.021(2) 1. 0
O13 O2- 2 a 0.9562(4) 0.6350(13) 0.7764(7) 0.015(2) 1. 0
O14 O2- 2 a 0.8870(4) 0.3451(12) 0.7105(7) 0.011(1) 1. 0
O15 O2- 2 a 0.8522(4) 0.6258(12) 0.5644(7) 0.012(1) 1. 0
O16 O2- 2 a 0.8169(4) 0.1360(13) 0.2020(7) 0.012(1) 1. 0
O17 O2- 2 a 0.7783(4) 0.8501(13) 0.2634(7) 0.011(1) 1. 0
O18 O2- 2 a 0.8156(4) 0.1242(12) 0.4111(7) 0.013(1) 1. 0
O19 O2- 2 a 0.3893(5) 0.3502(14) 0.7401(8) 0.020(2) 1. 0
O20 O2- 2 a 0.5354(4) 0.1291(13) 0.2011(8) 0.015(2) 1. 0
O21 O2- 2 a 0.3555(4) 0.6248(12) 0.5889(7) 0.012(1) 1. 0
O22 O2- 2 a 0.9586(4) 0.3084(14) 0.5517(8) 0.017(2) 1. 0
O23 O2- 2 a 0.0343(4) 0.8759(13) 0.6439(7) 0.014(2) 1. 0
O24 O2- 2 a 0.0677(4) 0.3068(14) 0.5599(8) 0.017(2) 1. 0
O25 O2- 2 a 0.6479(4) 0.1255(12) 0.8597(7) 0.011(1) 1. 0
O26 O2- 2 a 0.3879(4) 0.3458(12) 0.0646(7) 0.009(1) 1. 0
O27 O2- 2 a 0.4560(4) 0.6363(13) 0.1361(7) 0.016(2) 1. 0
O28 O2- 2 a 0.5678(4) 0.3075(14) 0.5742(8) 0.017(2) 1. 0
O29 O2- 2 a 0.5346(4) 0.8760(13) 0.4250(8) 0.017(2) 1. 0
O30 O2- 2 a 0.4589(4) 0.3100(13) 0.3667(7) 0.014(2) 1. 0
#End of TTdata_79144-ICSD