
#(C) 2019 by FIZ Karlsruhe - Leibniz Institute for Information Infrastructure.  All rights reserved.
data_79876-ICSD
_database_code_ICSD 79876
_audit_creation_date 1996-10-14
_chemical_name_systematic 'Disodium tetrapraseodymium nonabromide nitride oxide'
_chemical_formula_structural 'Na2 Pr4 Br9 N O'
_chemical_formula_sum 'Br9 N1 Na2 O1 Pr4'
_exptl_crystal_density_diffrn 4.85
_publ_section_title

;
Interstitially-stabilized praseodymium(III) compounds Na2 Pr4 Br9 N O and Pr8
Br13 N3 O : structures on the border between salts and clusters
;
loop_
_citation_id
_citation_journal_full
_citation_year
_citation_journal_volume
_citation_page_first
_citation_page_last
_citation_journal_id_ASTM
primary 'Inorganic Chemistry' 1995 34 2671 2677 INOCAJ
loop_
_publ_author_name
'Lulei, M.'
'Steinwand, S.J.'
'Corbett, J.D.'
_cell_length_a 8.543(4)
_cell_length_b 11.707(3)
_cell_length_c 9.697(4)
_cell_angle_alpha 90.
_cell_angle_beta 106.49(3)
_cell_angle_gamma 90.
_cell_volume 929.94
_cell_formula_units_Z 2
_symmetry_space_group_name_H-M 'P 1 21/m 1'
_symmetry_Int_Tables_number 11
_refine_ls_R_factor_all 0.037
loop_
_symmetry_equiv_pos_site_id
_symmetry_equiv_pos_as_xyz
1 'x, -y+1/2, z'
2 '-x, -y, -z'
3 '-x, y+1/2, -z'
4 'x, y, z'
loop_
_atom_type_symbol
_atom_type_oxidation_number
Pr3+ 3
Na1+ 1
Br1- -1
N3- -3
O2- -2
loop_
_atom_site_label
_atom_site_type_symbol
_atom_site_symmetry_multiplicity
_atom_site_Wyckoff_symbol
_atom_site_fract_x
_atom_site_fract_y
_atom_site_fract_z
_atom_site_B_iso_or_equiv
_atom_site_occupancy
_atom_site_attached_hydrogens
Pr1 Pr3+ 2 e 0.9083(1) 0.25 0.1625(1) 0.88(4) 1. 0
Pr2 Pr3+ 2 e 0.8959(1) 0.25 0.7916(1) 0.94(4) 1. 0
Pr3 Pr3+ 4 f 0.2080(1) 0.04113(7) 0.0471(1) 1.14(3) 1. 0
Na1 Na1+ 4 f 0.281(1) 0.983(1) 0.573(1) 0.3(1) 0.47(1) 0
Na2 Na1+ 4 f 0.245(1) 0.043(1) 0.567(1) 0.3(1) 0.53(1) 0
Br1 Br1- 4 f 0.6084(2) 0.4012(1) 0.1224(2) 2.49(7) 1. 0
Br2 Br1- 4 f -.0082(3) -.0029(2) 0.6966(2) 3.18(9) 1. 0
Br3 Br1- 2 e 0.2756(3) 0.25 0.2637(3) 1.8(1) 1. 0
Br4 Br1- 2 e 0.2561(3) 0.25 0.8564(3) 1.9(1) 1. 0
Br5 Br1- 2 e 0.8677(5) 0.25 0.4692(3) 4.2(1) 1. 0
Br6 Br1- 4 f 0.5963(2) 0.0936(2) 0.6857(2) 3.13(8) 1. 0
N1 N3- 4 f 0.942(1) 0.125(1) 0.986(1) 0.9(2) 0.5 0
O1 O2- 4 f 0.942(1) 0.125(1) 0.986(1) 0.9(2) 0.5 0
#End of TTdata_79876-ICSD