
#(C) 2019 by FIZ Karlsruhe - Leibniz Institute for Information Infrastructure.  All rights reserved.
data_80051-ICSD
_database_code_ICSD 80051
_audit_creation_date 1996-10-14
_audit_update_record 2007-04-01
_chemical_name_systematic 'Cesium sodium tecto-gallosilicate *'
_chemical_formula_structural 'Cs8.8 Na9.8 (Ga21.42 Si26.58 O96)'
_chemical_formula_sum 'Cs8.8 Ga21.42 Na9.8 O96 Si26.58'
_chemical_name_structure_type Zeolite-RHO-I4-3m-frame
_chemical_name_mineral 'Zeolite ECR 10 (Ga-bearing, dehydrated)'
_exptl_crystal_density_diffrn 2.79
_publ_section_title

;
Synthesis and structure determination of ECR-10. A gallosilicate zeolite with
the RHO-framework
;
loop_
_citation_id
_citation_journal_full
_citation_year
_citation_journal_volume
_citation_page_first
_citation_page_last
_citation_journal_id_ASTM
primary 'Journal of Physical Chemistry' 1995 99 9924 9932 JPCHAX
loop_
_publ_author_name
'Newsam, J.M.'
'Vaughan, D.E.W.'
'Strohmaier, K.G.'
_cell_length_a 14.545(1)
_cell_length_b 14.545(1)
_cell_length_c 14.545(1)
_cell_angle_alpha 90.
_cell_angle_beta 90.
_cell_angle_gamma 90.
_cell_volume 3077.1
_cell_formula_units_Z 1
_symmetry_space_group_name_H-M 'I -4 3 m'
_symmetry_Int_Tables_number 217
_refine_ls_R_factor_all 0.0361
loop_
_symmetry_equiv_pos_site_id
_symmetry_equiv_pos_as_xyz
1 '-z, -y, x'
2 '-y, -x, z'
3 '-x, -z, y'
4 '-z, -x, y'
5 '-y, -z, x'
6 '-x, -y, z'
7 '-z, y, -x'
8 '-y, x, -z'
9 '-x, z, -y'
10 '-z, x, -y'
11 '-y, z, -x'
12 '-x, y, -z'
13 'z, -y, -x'
14 'y, -x, -z'
15 'x, -z, -y'
16 'z, -x, -y'
17 'y, -z, -x'
18 'x, -y, -z'
19 'z, y, x'
20 'y, x, z'
21 'x, z, y'
22 'z, x, y'
23 'y, z, x'
24 'x, y, z'
25 '-z+1/2, -y+1/2, x+1/2'
26 '-y+1/2, -x+1/2, z+1/2'
27 '-x+1/2, -z+1/2, y+1/2'
28 '-z+1/2, -x+1/2, y+1/2'
29 '-y+1/2, -z+1/2, x+1/2'
30 '-x+1/2, -y+1/2, z+1/2'
31 '-z+1/2, y+1/2, -x+1/2'
32 '-y+1/2, x+1/2, -z+1/2'
33 '-x+1/2, z+1/2, -y+1/2'
34 '-z+1/2, x+1/2, -y+1/2'
35 '-y+1/2, z+1/2, -x+1/2'
36 '-x+1/2, y+1/2, -z+1/2'
37 'z+1/2, -y+1/2, -x+1/2'
38 'y+1/2, -x+1/2, -z+1/2'
39 'x+1/2, -z+1/2, -y+1/2'
40 'z+1/2, -x+1/2, -y+1/2'
41 'y+1/2, -z+1/2, -x+1/2'
42 'x+1/2, -y+1/2, -z+1/2'
43 'z+1/2, y+1/2, x+1/2'
44 'y+1/2, x+1/2, z+1/2'
45 'x+1/2, z+1/2, y+1/2'
46 'z+1/2, x+1/2, y+1/2'
47 'y+1/2, z+1/2, x+1/2'
48 'x+1/2, y+1/2, z+1/2'
loop_
_atom_type_symbol
_atom_type_oxidation_number
Si4+ 4
Ga3+ 3
O2- -2
Cs1+ 1
Na1+ 1
loop_
_atom_site_label
_atom_site_type_symbol
_atom_site_symmetry_multiplicity
_atom_site_Wyckoff_symbol
_atom_site_fract_x
_atom_site_fract_y
_atom_site_fract_z
_atom_site_B_iso_or_equiv
_atom_site_occupancy
_atom_site_attached_hydrogens
Si1 Si4+ 48 h 0.2772(3) 0.1290(2) 0.4314(3) 0.63(4) 0.5537 0
Ga1 Ga3+ 48 h 0.2772(3) 0.1290(2) 0.4314(3) 0.63(4) 0.4463 0
O1 O2- 48 h 0.2103(3) 0.0463(2) 0.3826(3) 2.28(4) 1. 0
O2 O2- 24 g 0.2343(3) 0.2343(3) 0.4066(4) 2.28(4) 1. 0
O3 O2- 24 g 0.3867(3) 0.1289(4) 0.3867(3) 2.28(4) 1. 0
Cs1 Cs1+ 6 b 0 0.5 0.5 2.28(4) 0.667(17) 0
Cs2 Cs1+ 8 c 0.1861(7) 0.1861(7) 0.1861(7) 2.28(4) 0.600(12) 0
Na1 Na1+ 8 c 0.3287(7) 0.3287(7) 0.3287(7) 2.28(4) 0.812(25) 0
Na2 Na1+ 24 g -.044(3) -.044(3) 0.389(5) 2.28(4) 0.138(13) 0
#End of TTdata_80051-ICSD