
#(C) 2019 by FIZ Karlsruhe - Leibniz Institute for Information Infrastructure.  All rights reserved.
data_80099-ICSD
_database_code_ICSD 80099
_audit_creation_date 1996-10-14
_audit_update_record 2010-08-01
_chemical_name_systematic 'Zinc sodium sulfate(VI) chloride (1/20.51/10/3)'
_chemical_formula_structural '(Zn (S O4)) (Na Cl)3 (Na1.9453 (S O4))9'
_chemical_formula_sum 'Cl3 Na20.5077 O40 S10 Zn1'
_chemical_name_structure_type Na21Zn(SO4)10Cl3
_chemical_name_mineral D'Ansite-(Zn)
_exptl_crystal_density_diffrn 2.64
_publ_section_title 'Single-crystal data collection with a Laue diffractometer'
loop_
_citation_id
_citation_journal_full
_citation_year
_citation_journal_volume
_citation_page_first
_citation_page_last
_citation_journal_id_ASTM
primary 'Acta Crystallographica, Section A: Foundations of Crystallography' 1995
51 931 936 ACACEQ
loop_
_publ_author_name
'Lange, J.'
'Burzlaff, H.'
_cell_length_a 15.9132(5)
_cell_length_b 15.9132(5)
_cell_length_c 15.9132(5)
_cell_angle_alpha 90.
_cell_angle_beta 90.
_cell_angle_gamma 90.
_cell_volume 4029.7
_cell_formula_units_Z 4
_symmetry_space_group_name_H-M 'I -4 3 d'
_symmetry_Int_Tables_number 220
_refine_ls_R_factor_all 0.036
loop_
_symmetry_equiv_pos_site_id
_symmetry_equiv_pos_as_xyz
1 '-y+1/4, -x+3/4, z+3/4'
2 'y+3/4, -x+1/4, -z+3/4'
3 '-y+3/4, x+3/4, -z+1/4'
4 'y+1/4, x+1/4, z+1/4'
5 'z+1/2, -x+1/2, -y'
6 '-z+1/2, -x, y+1/2'
7 '-z, x+1/2, -y+1/2'
8 'z, x, y'
9 'z+3/4, -y+1/4, -x+3/4'
10 '-z+3/4, y+3/4, -x+1/4'
11 '-z+1/4, -y+3/4, x+3/4'
12 'z+1/4, y+1/4, x+1/4'
13 '-y, z+1/2, -x+1/2'
14 'y+1/2, -z+1/2, -x'
15 '-y+1/2, -z, x+1/2'
16 'y, z, x'
17 '-x+3/4, z+3/4, -y+1/4'
18 '-x+1/4, -z+3/4, y+3/4'
19 'x+3/4, -z+1/4, -y+3/4'
20 'x+1/4, z+1/4, y+1/4'
21 '-x+1/2, -y, z+1/2'
22 '-x, y+1/2, -z+1/2'
23 'x+1/2, -y+1/2, -z'
24 'x, y, z'
25 '-y+3/4, -x+1/4, z+1/4'
26 'y+1/4, -x+3/4, -z+1/4'
27 '-y+1/4, x+1/4, -z+3/4'
28 'y+3/4, x+3/4, z+3/4'
29 'z, -x, -y+1/2'
30 '-z, -x+1/2, y'
31 '-z+1/2, x, -y'
32 'z+1/2, x+1/2, y+1/2'
33 'z+1/4, -y+3/4, -x+1/4'
34 '-z+1/4, y+1/4, -x+3/4'
35 '-z+3/4, -y+1/4, x+1/4'
36 'z+3/4, y+3/4, x+3/4'
37 '-y+1/2, z, -x'
38 'y, -z, -x+1/2'
39 '-y, -z+1/2, x'
40 'y+1/2, z+1/2, x+1/2'
41 '-x+1/4, z+1/4, -y+3/4'
42 '-x+3/4, -z+1/4, y+1/4'
43 'x+1/4, -z+3/4, -y+1/4'
44 'x+3/4, z+3/4, y+3/4'
45 '-x, -y+1/2, z'
46 '-x+1/2, y, -z'
47 'x, -y, -z+1/2'
48 'x+1/2, y+1/2, z+1/2'
loop_
_atom_type_symbol
_atom_type_oxidation_number
Na1+ 1
Zn2+ 2
Cl1- -1
S6+ 6
Na1+ 1
O1- -1.988
loop_
_atom_site_label
_atom_site_type_symbol
_atom_site_symmetry_multiplicity
_atom_site_Wyckoff_symbol
_atom_site_fract_x
_atom_site_fract_y
_atom_site_fract_z
_atom_site_B_iso_or_equiv
_atom_site_occupancy
_atom_site_attached_hydrogens
Na1 Na1+ 16 c 0.32956(7) 0.32956(7) 0.32956(7) . 0.75 0
Zn1 Zn2+ 16 c 0.32956(7) 0.32956(7) 0.32956(7) . 0.25 0
Cl1 Cl1- 12 a 0.25 0.375 0 . 1. 0
S1 S6+ 24 d 0.25 0.26827(6) 0.5 . 1. 0
S2 S6+ 16 c 0.46069(5) 0.46069(5) 0.46069(5) . 1. 0
Na2 Na1+ 48 e 0.37487(9) 0.34864(8) 0.11778(9) . 1. 0
Na3 Na1+ 48 e 0.5178(2) 0.2454(5) 0.4567(2) . 0.459(6) 0
O1 O1- 48 e 0.0878(2) 0.4747(2) 0.4638(2) . 1. 0
O2 O1- 48 e 0.2319(2) 0.0338(1) 0.4260(2) . 1. 0
O3 O1- 48 e 0.0180(2) 0.3229(2) 0.0724(2) . 1. 0
O4 O1- 16 c 0.4086(3) 0.4086(3) 0.4086(3) . 1. 0
loop_
_atom_site_aniso_label
_atom_site_aniso_type_symbol
_atom_site_aniso_U_11
_atom_site_aniso_U_22
_atom_site_aniso_U_33
_atom_site_aniso_U_12
_atom_site_aniso_U_13
_atom_site_aniso_U_23
Na1 Na1+ 0.0334(6) 0.0334(6) 0.0334(6) 0.0054(5) 0.0054(5) 0.0054(5)
Zn1 Zn2+ 0.0334(6) 0.0334(6) 0.0334(6) 0.0054(5) 0.0054(5) 0.0054(5)
Cl1 Cl1- 0.0224(4) 0.0189(5) 0.0224(4) 0 0 0
S1 S6+ 0.0266(5) 0.0144(3) 0.0169(4) 0 -.0027(4) 0
S2 S6+ 0.0181(2) 0.0181(2) 0.0181(2) 0.0012(2) 0.0012(2) 0.0012(2)
Na2 Na1+ 0.0285(6) 0.0300(6) 0.0250(6) 0.0036(5) -.0043(6) -.0029(5)
Na3 Na1+ 0.047(3) 0.036(2) 0.016(1) -.005(3) -.002(1) 0.000(2)
O1 O1- 0.078(2) 0.056(2) 0.039(2) -.028(2) 0.031(2) -.012(1)
O2 O1- 0.033(1) 0.026(1) 0.032(1) 0.0000(9) -.001(1) 0.0070(9)
O3 O1- 0.043(2) 0.043(1) 0.037(1) -.009(1) -.001(1) -.024(1)
O4 O1- 0.109(4) 0.109(4) 0.109(4) -.040(3) -.040(3) -.040(3)
#End of TTdata_80099-ICSD