
#(C) 2019 by FIZ Karlsruhe - Leibniz Institute for Information Infrastructure.  All rights reserved.
data_80110-ICSD
_database_code_ICSD 80110
_audit_creation_date 1996-10-14
_chemical_name_systematic 'Barium sodium borate'
_chemical_formula_structural 'Ba Na (B O3)'
_chemical_formula_sum 'B1 Ba1 Na1 O3'
_chemical_name_structure_type Na2CO3(HT)
_exptl_crystal_density_diffrn 4.49
_cell_measurement_temperature 296.
_publ_section_title 'Ba Na B O3'
loop_
_citation_id
_citation_journal_full
_citation_year
_citation_journal_volume
_citation_page_first
_citation_page_last
_citation_journal_id_ASTM
primary 'Acta Crystallographica, Section C: Crystal Structure Communications'
1995 51 1962 1964 ACSCEE
loop_
_publ_author_name
'Tu, J.-M.'
'Keszler, D.A.'
_cell_length_a 9.561(2)
_cell_length_b 5.557(2)
_cell_length_c 6.179(2)
_cell_angle_alpha 90.
_cell_angle_beta 98.85(2)
_cell_angle_gamma 90.
_cell_volume 324.38
_cell_formula_units_Z 4
_symmetry_space_group_name_H-M 'C 1 2/m 1'
_symmetry_Int_Tables_number 12
_refine_ls_R_factor_all 0.033
loop_
_symmetry_equiv_pos_site_id
_symmetry_equiv_pos_as_xyz
1 '-x, y, -z'
2 '-x, -y, -z'
3 'x, -y, z'
4 'x, y, z'
5 '-x+1/2, y+1/2, -z'
6 '-x+1/2, -y+1/2, -z'
7 'x+1/2, -y+1/2, z'
8 'x+1/2, y+1/2, z'
loop_
_atom_type_symbol
_atom_type_oxidation_number
Ba2+ 2
Na1+ 1
O2- -2
B3+ 3
loop_
_atom_site_label
_atom_site_type_symbol
_atom_site_symmetry_multiplicity
_atom_site_Wyckoff_symbol
_atom_site_fract_x
_atom_site_fract_y
_atom_site_fract_z
_atom_site_B_iso_or_equiv
_atom_site_occupancy
_atom_site_attached_hydrogens
Ba1 Ba2+ 4 i 0.6666(7) 0 0.7436(1) . 1. 0
Na1 Na1+ 2 a 0 0 0 . 1. 0
Na2 Na1+ 2 c 0 0 0.5 . 1. 0
O1 O2- 4 i 0.7977(7) 0 0.178(1) . 1. 0
O2 O2- 8 j 0.6023(5) 0.213(1) 0.291(1) . 1. 0
B1 B3+ 4 i 0.668(1) 0 0.257(2) . 1. 0
loop_
_atom_site_aniso_label
_atom_site_aniso_type_symbol
_atom_site_aniso_U_11
_atom_site_aniso_U_22
_atom_site_aniso_U_33
_atom_site_aniso_U_12
_atom_site_aniso_U_13
_atom_site_aniso_U_23
Ba1 Ba2+ 0.0109(3) 0.0115(3) 0.0111(3) 0 0.0018(2) 0
Na1 Na1+ 0.016(3) 0.014(3) 0.023(3) 0 0.005(2) 0
Na2 Na1+ 0.022(3) 0.007(3) 0.026(3) 0 0.007(3) 0
O1 O2- 0.013(3) 0.013(4) 0.013(3) 0 0.005(3) 0
O2 O2- 0.018(2) 0.013(3) 0.029(3) 0.001(2) 0.010(2) 0.005(2)
B1 B3+ 0.012(4) 0.010(5) 0.000(4) 0 -.008(3) 0
#End of TTdata_80110-ICSD