
#(C) 2019 by FIZ Karlsruhe - Leibniz Institute for Information Infrastructure.  All rights reserved.
data_8034-ICSD
_database_code_ICSD 8034
_audit_creation_date 1980-01-01
_audit_update_record 2012-08-01
_chemical_name_systematic 'Disodium uranium fluoride - delta'
_chemical_formula_structural 'Na2 U F6'
_chemical_formula_sum 'F6 Na2 U1'
_exptl_crystal_density_diffrn 5.64
_publ_section_title 'Disodium uranium(IV) fluoride'
loop_
_citation_id
_citation_journal_full
_citation_year
_citation_journal_volume
_citation_page_first
_citation_page_last
_citation_journal_id_ASTM
primary

;
Acta Crystallographica, Section B: Structural Crystallography and Crystal
Chemistry
; 1979 35 1198 1200 ACBCAR
loop_
_publ_author_name
'Cousson, A.'
'Tabuteau, A.'
'Pages, M.'
'Gasperin, M.'
_cell_length_a 6.112(2)
_cell_length_b 6.112(2)
_cell_length_c 7.240(2)
_cell_angle_alpha 90.
_cell_angle_beta 90.
_cell_angle_gamma 120.
_cell_volume 234.23
_cell_formula_units_Z 2
_symmetry_space_group_name_H-M 'P 3'
_symmetry_Int_Tables_number 143
_refine_ls_R_factor_all 0.098
loop_
_symmetry_equiv_pos_site_id
_symmetry_equiv_pos_as_xyz
1 '-x+y, -x, z'
2 '-y, x-y, z'
3 'x, y, z'
loop_
_atom_type_symbol
_atom_type_oxidation_number
U4+ 4
Na1+ 1
F1- -1
loop_
_atom_site_label
_atom_site_type_symbol
_atom_site_symmetry_multiplicity
_atom_site_Wyckoff_symbol
_atom_site_fract_x
_atom_site_fract_y
_atom_site_fract_z
_atom_site_B_iso_or_equiv
_atom_site_occupancy
_atom_site_attached_hydrogens
U1 U4+ 1 b 0.3333 0.6666 0.8579 0.4 1. 0
U2 U4+ 1 c 0.6666 0.3333 0.1394(1) 0.1 1. 0
Na1 Na1+ 1 a 0 0 0.0313(26) 1.6 1. 0
Na2 Na1+ 1 a 0 0 0.5111(41) 1.7 1. 0
Na3 Na1+ 1 b 0.3333 0.6667 0.4141(19) 0.5 1. 0
Na4 Na1+ 1 c 0.6667 0.3333 0.6213(19) 0.7 1. 0
F1 F1- 3 d 0.3166(22) 0.9191(21) 0.1083(15) 0.5 1. 0
F2 F1- 3 d 0.7157(24) 0.0911(24) 0.3459(16) 0.9 1. 0
F3 F1- 3 d 0.0924(34) 0.3946(34) 0.6354(25) 1.1 1. 0
F4 F1- 3 d 0.6991(35) 0.0800(33) 0.9029(23) 1. 1. 0
#End of TTdata_8034-ICSD