
#(C) 2019 by FIZ Karlsruhe - Leibniz Institute for Information Infrastructure.  All rights reserved.
data_80418-ICSD
_database_code_ICSD 80418
_audit_creation_date 1997-05-13
_audit_update_record 2006-04-01
_chemical_name_systematic 'Disodium copper diphosphate(V) - beta'
_chemical_formula_structural 'Na2 Cu (P2 O7)'
_chemical_formula_sum 'Cu1 Na2 O7 P2'
_chemical_name_structure_type Na2PdP2O7
_exptl_crystal_density_diffrn 3.07
_cell_measurement_temperature 295.
_publ_section_title 'The crystal structure of alpha- and beta- Na2 Cu P2 O7'
loop_
_citation_id
_citation_journal_full
_citation_year
_citation_journal_volume
_citation_page_first
_citation_page_last
_citation_journal_id_ASTM
primary 'Journal of Solid State Chemistry' 1995 120 23 31 JSSCBI
loop_
_publ_author_name
'Erragh, F.'
'Boukhari, A.'
'Abraham, F.'
'Elouadi, B.'
_cell_length_a 14.728(3)
_cell_length_b 5.698(1)
_cell_length_c 8.067(1)
_cell_angle_alpha 90.
_cell_angle_beta 115.15(1)
_cell_angle_gamma 90.
_cell_volume 612.8
_cell_formula_units_Z 4
_symmetry_space_group_name_H-M 'C 1 2/c 1'
_symmetry_Int_Tables_number 15
_refine_ls_R_factor_all 0.024
loop_
_symmetry_equiv_pos_site_id
_symmetry_equiv_pos_as_xyz
1 'x, -y, z+1/2'
2 '-x, -y, -z'
3 '-x, y, -z+1/2'
4 'x, y, z'
5 'x+1/2, -y+1/2, z+1/2'
6 '-x+1/2, -y+1/2, -z'
7 '-x+1/2, y+1/2, -z+1/2'
8 'x+1/2, y+1/2, z'
loop_
_atom_type_symbol
_atom_type_oxidation_number
Cu2+ 2
P5+ 5
Na1+ 1
O2- -2
loop_
_atom_site_label
_atom_site_type_symbol
_atom_site_symmetry_multiplicity
_atom_site_Wyckoff_symbol
_atom_site_fract_x
_atom_site_fract_y
_atom_site_fract_z
_atom_site_B_iso_or_equiv
_atom_site_occupancy
_atom_site_attached_hydrogens
Cu1 Cu2+ 4 a 0 0 0 0.87 1. 0
P1 P5+ 8 f 0.10478(3) 0.34114(7) 0.84425(5) 0.63 1. 0
Na1 Na1+ 8 f 0.27068(6) 0.6399(1) 0.2009(1) 1.18 1. 0
O1 O2- 8 f 0.1017(1) 0.2135(2) 0.0077(2) 1.26 1. 0
O2 O2- 8 f 0.1878(1) 0.5160(2) 0.8983(2) 1. 1. 0
O3 O2- 8 f 0.1072(1) 0.1677(2) 0.7006(2) 1.29 1. 0
O4 O2- 4 e 0 0.4825(3) 0.75 0.82 1. 0
#End of TTdata_80418-ICSD