
#(C) 2019 by FIZ Karlsruhe - Leibniz Institute for Information Infrastructure.  All rights reserved.
data_80426-ICSD
_database_code_ICSD 80426
_audit_creation_date 1997-05-13
_audit_update_record 1999-11-30
_chemical_name_systematic 'Sodium dititanium tris(phosphate)'
_chemical_formula_structural 'Na Ti2 (P O4)3'
_chemical_formula_sum 'Na1 O12 P3 Ti2'
_chemical_name_structure_type NaZr2(PO4)3
_exptl_crystal_density_diffrn 2.97
_publ_section_title
'Crystal structures of nonstoichiometric sodium dititanium triphosphates'
loop_
_citation_id
_citation_journal_full
_citation_year
_citation_journal_volume
_citation_page_first
_citation_page_last
_citation_journal_id_ASTM
primary 'Kochi Daigaku Rigakubu Kiyo, Kagaku' 1995 16 13 17 KDRKDD
loop_
_publ_author_name
'Shimanouchi-Futagami, R.'
'Nishizawa, H.'
_cell_length_a 8.48(1)
_cell_length_b 8.48(1)
_cell_length_c 21.770(40)
_cell_angle_alpha 90.
_cell_angle_beta 90.
_cell_angle_gamma 120.
_cell_volume 1355.75
_cell_formula_units_Z 6
_symmetry_space_group_name_H-M 'R -3 c H'
_symmetry_Int_Tables_number 167
_refine_ls_R_factor_all 0.036
loop_
_symmetry_equiv_pos_site_id
_symmetry_equiv_pos_as_xyz
1 'x-y, -y, -z+1/2'
2 '-x, -x+y, -z+1/2'
3 'y, x, -z+1/2'
4 'x-y, x, -z'
5 'y, -x+y, -z'
6 '-x, -y, -z'
7 '-x+y, y, z+1/2'
8 'x, x-y, z+1/2'
9 '-y, -x, z+1/2'
10 '-x+y, -x, z'
11 '-y, x-y, z'
12 'x, y, z'
13 'x-y+2/3, -y+1/3, -z+5/6'
14 '-x+2/3, -x+y+1/3, -z+5/6'
15 'y+2/3, x+1/3, -z+5/6'
16 'x-y+2/3, x+1/3, -z+1/3'
17 'y+2/3, -x+y+1/3, -z+1/3'
18 '-x+2/3, -y+1/3, -z+1/3'
19 '-x+y+2/3, y+1/3, z+5/6'
20 'x+2/3, x-y+1/3, z+5/6'
21 '-y+2/3, -x+1/3, z+5/6'
22 '-x+y+2/3, -x+1/3, z+1/3'
23 '-y+2/3, x-y+1/3, z+1/3'
24 'x+2/3, y+1/3, z+1/3'
25 'x-y+1/3, -y+2/3, -z+1/6'
26 '-x+1/3, -x+y+2/3, -z+1/6'
27 'y+1/3, x+2/3, -z+1/6'
28 'x-y+1/3, x+2/3, -z+2/3'
29 'y+1/3, -x+y+2/3, -z+2/3'
30 '-x+1/3, -y+2/3, -z+2/3'
31 '-x+y+1/3, y+2/3, z+1/6'
32 'x+1/3, x-y+2/3, z+1/6'
33 '-y+1/3, -x+2/3, z+1/6'
34 '-x+y+1/3, -x+2/3, z+2/3'
35 '-y+1/3, x-y+2/3, z+2/3'
36 'x+1/3, y+2/3, z+2/3'
loop_
_atom_type_symbol
_atom_type_oxidation_number
Na1+ 1
Ti4+ 4
P5+ 5
O2- -2
loop_
_atom_site_label
_atom_site_type_symbol
_atom_site_symmetry_multiplicity
_atom_site_Wyckoff_symbol
_atom_site_fract_x
_atom_site_fract_y
_atom_site_fract_z
_atom_site_B_iso_or_equiv
_atom_site_occupancy
_atom_site_attached_hydrogens
Na1 Na1+ 6 b 0 0 0 . 1. 0
Ti1 Ti4+ 12 c 0 0 0.145(2) . 1. 0
P1 P5+ 18 e 0.287 0 0.25 . 1. 0
O1 O2- 36 f 0.176(8) -.025(4) 0.191(4) . 1. 0
O2 O2- 36 f 0.191(2) 0.164(4) 0.087 . 1. 0
loop_
_atom_site_aniso_label
_atom_site_aniso_type_symbol
_atom_site_aniso_beta_11
_atom_site_aniso_beta_22
_atom_site_aniso_beta_33
_atom_site_aniso_beta_12
_atom_site_aniso_beta_13
_atom_site_aniso_beta_23
Na1 Na1+ 0.003841 0.003841 0.000423 0.001921 0 0
Ti1 Ti4+ 0.002031 0.002031 0.00026 0.001016 0 0
P1 P5+ 0.002287 0.002287 0.00028 0.001144 0 0
O1 O2- 0.00215 0.00215 0.000262 0.001075 0 0
O2 O2- 0.001274 0.001274 0.000145 0.000637 0 0
#End of TTdata_80426-ICSD