
#(C) 2019 by FIZ Karlsruhe - Leibniz Institute for Information Infrastructure.  All rights reserved.
data_80542-ICSD
_database_code_ICSD 80542
_audit_creation_date 1997-05-13
_chemical_name_systematic 'Sodium calcium pentafluoroaluminate fluoride - beta'
_chemical_formula_structural 'Na Ca (Al F5) F'
_chemical_formula_sum 'Al1 Ca1 F6 Na1'
_chemical_name_structure_type Na2SiF6
_exptl_crystal_density_diffrn 2.91
_publ_section_title

;
The Na F - Ca F2 - Al F3 system: structures of beta- Na Ca Al F6 and Na4 Ca4
Al7 F33
;
loop_
_citation_id
_citation_journal_full
_citation_year
_citation_journal_volume
_citation_page_first
_citation_page_last
_citation_journal_id_ASTM
primary 'Journal of Solid State Chemistry' 1990 84 153 164 JSSCBI
loop_
_publ_author_name
'Hemon, A.'
'Courbion, G.'
_cell_length_a 8.9295(9)
_cell_length_b 8.9295(9)
_cell_length_c 5.0642(2)
_cell_angle_alpha 90.
_cell_angle_beta 90.
_cell_angle_gamma 120.
_cell_volume 349.7
_cell_formula_units_Z 3
_symmetry_space_group_name_H-M 'P 3 2 1'
_symmetry_Int_Tables_number 150
_refine_ls_R_factor_all 0.032
loop_
_symmetry_equiv_pos_site_id
_symmetry_equiv_pos_as_xyz
1 'x-y, -y, -z'
2 '-x, -x+y, -z'
3 'y, x, -z'
4 '-x+y, -x, z'
5 '-y, x-y, z'
6 'x, y, z'
loop_
_atom_type_symbol
_atom_type_oxidation_number
Ca2+ 2
Na1+ 1
Al3+ 3
F1- -1
loop_
_atom_site_label
_atom_site_type_symbol
_atom_site_symmetry_multiplicity
_atom_site_Wyckoff_symbol
_atom_site_fract_x
_atom_site_fract_y
_atom_site_fract_z
_atom_site_B_iso_or_equiv
_atom_site_occupancy
_atom_site_attached_hydrogens
Ca1 Ca2+ 3 e 0.3720(3) 0 0 1.17(4) 1. 0
Na1 Na1+ 3 f 0.7145(6) 0 0.5 1.1(1) 1. 0
Al1 Al3+ 1 a 0 0 0 1.0(1) 1. 0
Al2 Al3+ 2 d 0.3333 0.6667 0.499(1) 1.4(1) 1. 0
F1 F1- 6 g 0.9136(5) 0.1041(6) 0.796(1) 1.4(1) 1. 0
F2 F1- 6 g 0.5541(5) 0.4101(6) 0.703(1) 2.0(2) 1. 0
F3 F1- 6 g 0.2517(6) 0.7771(7) 0.703(1) 1.3(1) 1. 0
#End of TTdata_80542-ICSD