
#(C) 2019 by FIZ Karlsruhe - Leibniz Institute for Information Infrastructure.  All rights reserved.
data_80562-ICSD
_database_code_ICSD 80562
_audit_creation_date 1997-05-13
_audit_update_record 2008-02-01
_chemical_name_systematic 'Sodium copper(III) oxide (1/1/1.86)'
_chemical_formula_structural 'Na Cu O1.86'
_chemical_formula_sum 'Cu1 Na1 O1.86'
_chemical_name_structure_type NaNiO2(mS8)
_exptl_crystal_density_diffrn 4.21
_cell_measurement_temperature 300.
_publ_section_title

;
Crystal growth and structure refinement of Na Cu O2 by X-ray and neutron
diffraction
;
loop_
_citation_id
_citation_journal_full
_citation_year
_citation_journal_volume
_citation_page_first
_citation_page_last
_citation_journal_id_ASTM
primary 'Journal of Solid State Chemistry' 1990 89 308 314 JSSCBI
loop_
_publ_author_name
'Pickardt, J.'
'Paulus, W.'
'Schmalz, M.'
'Schoellhorn, R.'
_cell_length_a 6.3581(1)
_cell_length_b 2.7504(1)
_cell_length_c 6.1088(2)
_cell_angle_alpha 90.
_cell_angle_beta 120.752(1)
_cell_angle_gamma 90.
_cell_volume 91.81
_cell_formula_units_Z 2
_symmetry_space_group_name_H-M 'C 1 2/m 1'
_symmetry_Int_Tables_number 12
loop_
_symmetry_equiv_pos_site_id
_symmetry_equiv_pos_as_xyz
1 '-x, y, -z'
2 '-x, -y, -z'
3 'x, -y, z'
4 'x, y, z'
5 '-x+1/2, y+1/2, -z'
6 '-x+1/2, -y+1/2, -z'
7 'x+1/2, -y+1/2, z'
8 'x+1/2, y+1/2, z'
loop_
_atom_type_symbol
_atom_type_oxidation_number
Cu2+ 2.72
Na1+ 1
O2- -2
loop_
_atom_site_label
_atom_site_type_symbol
_atom_site_symmetry_multiplicity
_atom_site_Wyckoff_symbol
_atom_site_fract_x
_atom_site_fract_y
_atom_site_fract_z
_atom_site_B_iso_or_equiv
_atom_site_occupancy
_atom_site_attached_hydrogens
Cu1 Cu2+ 2 a 0 0 0 0.0223(11) 1. 0
Na1 Na1+ 2 d 0 0.5 0.5 0.0127(8) 1. 0
O1 O2- 4 i 0.3334(2) 0 0.7767(3) 0.0099(7) 0.93(2) 0
#End of TTdata_80562-ICSD