
#(C) 2019 by FIZ Karlsruhe - Leibniz Institute for Information Infrastructure.  All rights reserved.
data_80561-ICSD
_database_code_ICSD 80561
_audit_creation_date 1997-05-13
_audit_update_record 2008-02-01
_chemical_name_systematic 'Sodium copper(III) oxide'
_chemical_formula_structural 'Na Cu O2'
_chemical_formula_sum 'Cu1 Na1 O2'
_chemical_name_structure_type NaNiO2(mS8)
_exptl_crystal_density_diffrn 4.28
_cell_measurement_temperature 300.
_publ_section_title

;
Crystal growth and structure refinement of Na Cu O2 by X-ray and neutron
diffraction
;
loop_
_citation_id
_citation_journal_full
_citation_year
_citation_journal_volume
_citation_page_first
_citation_page_last
_citation_journal_id_ASTM
primary 'Journal of Solid State Chemistry' 1990 89 308 314 JSSCBI
loop_
_publ_author_name
'Pickardt, J.'
'Paulus, W.'
'Schmalz, M.'
'Schoellhorn, R.'
_cell_length_a 6.363(2)
_cell_length_b 2.753(1)
_cell_length_c 6.110(1)
_cell_angle_alpha 90.
_cell_angle_beta 120.78(2)
_cell_angle_gamma 90.
_cell_volume 91.95
_cell_formula_units_Z 2
_symmetry_space_group_name_H-M 'C 1 2/m 1'
_symmetry_Int_Tables_number 12
_refine_ls_R_factor_all 0.0297
loop_
_symmetry_equiv_pos_site_id
_symmetry_equiv_pos_as_xyz
1 '-x, y, -z'
2 '-x, -y, -z'
3 'x, -y, z'
4 'x, y, z'
5 '-x+1/2, y+1/2, -z'
6 '-x+1/2, -y+1/2, -z'
7 'x+1/2, -y+1/2, z'
8 'x+1/2, y+1/2, z'
loop_
_atom_type_symbol
_atom_type_oxidation_number
Cu3+ 3
Na1+ 1
O2- -2
loop_
_atom_site_label
_atom_site_type_symbol
_atom_site_symmetry_multiplicity
_atom_site_Wyckoff_symbol
_atom_site_fract_x
_atom_site_fract_y
_atom_site_fract_z
_atom_site_B_iso_or_equiv
_atom_site_occupancy
_atom_site_attached_hydrogens
Cu1 Cu3+ 2 a 0 0 0 . 1. 0
Na1 Na1+ 2 d 0 0.5 0.5 . 1. 0
O1 O2- 4 i 0.3330(3) 0 0.7762(3) . 1. 0
loop_
_atom_site_aniso_label
_atom_site_aniso_type_symbol
_atom_site_aniso_U_11
_atom_site_aniso_U_22
_atom_site_aniso_U_33
_atom_site_aniso_U_12
_atom_site_aniso_U_13
_atom_site_aniso_U_23
Cu1 Cu3+ 0.0083(2) 0.0036(2) 0.0077(2) 0 0.0027(1) 0
Na1 Na1+ 0.0122(5) 0.0103(6) 0.0139(6) 0 0.0052(5) 0
O1 O2- 0.0122(5) 0.0052(6) 0.0095(5) 0 0.0025(4) 0
#End of TTdata_80561-ICSD