
#(C) 2019 by FIZ Karlsruhe - Leibniz Institute for Information Infrastructure.  All rights reserved.
data_80585-ICSD
_database_code_ICSD 80585
_audit_creation_date 1997-05-13
_audit_update_record 2008-08-01
_chemical_name_systematic
'Sodium aluminium gallium oxide (1.32/7.16/3.84/17.16) - beta'
_chemical_formula_structural 'Na1.32 (Al7.16 Ga3.84 O17.16)'
_chemical_formula_sum 'Al7.16 Ga3.84 Na1.32 O17.16'
_chemical_name_structure_type HAl11O17
_exptl_crystal_density_diffrn 4.03
_publ_section_title

;
Structural refinements on a sodium beta-aluminogallate crystal and a parent
Nd(3+)-exchanged crystal
;
loop_
_citation_id
_citation_journal_full
_citation_year
_citation_journal_volume
_citation_page_first
_citation_page_last
_citation_journal_id_ASTM
primary 'Journal of Solid State Chemistry' 1991 91 71 81 JSSCBI
loop_
_publ_author_name
'Kahn-Harari, A.'
'Aka, G.'
'Thery, J.'
_cell_length_a 5.667
_cell_length_b 5.667
_cell_length_c 22.6629(10)
_cell_angle_alpha 90.
_cell_angle_beta 90.
_cell_angle_gamma 120.
_cell_volume 630.31
_cell_formula_units_Z 2
_symmetry_space_group_name_H-M 'P 63/m m c'
_symmetry_Int_Tables_number 194
_refine_ls_R_factor_all 0.029
loop_
_symmetry_equiv_pos_site_id
_symmetry_equiv_pos_as_xyz
1 'x, x-y, -z+1/2'
2 '-x+y, y, -z+1/2'
3 '-y, -x, -z+1/2'
4 '-x+y, -x, -z+1/2'
5 '-y, x-y, -z+1/2'
6 'x, y, -z+1/2'
7 '-x, -x+y, z+1/2'
8 'x-y, -y, z+1/2'
9 'y, x, z+1/2'
10 'x-y, x, z+1/2'
11 'y, -x+y, z+1/2'
12 '-x, -y, z+1/2'
13 '-x, -x+y, -z'
14 'x-y, -y, -z'
15 'y, x, -z'
16 'x-y, x, -z'
17 'y, -x+y, -z'
18 '-x, -y, -z'
19 'x, x-y, z'
20 '-x+y, y, z'
21 '-y, -x, z'
22 '-x+y, -x, z'
23 '-y, x-y, z'
24 'x, y, z'
loop_
_atom_type_symbol
_atom_type_oxidation_number
Al3+ 3
Ga3+ 3
Al3+ 3
Ga3+ 3
Al3+ 3
Ga3+ 3
Al3+ 3
O2- -2
Na1+ 1
O2- -2
loop_
_atom_site_label
_atom_site_type_symbol
_atom_site_symmetry_multiplicity
_atom_site_Wyckoff_symbol
_atom_site_fract_x
_atom_site_fract_y
_atom_site_fract_z
_atom_site_B_iso_or_equiv
_atom_site_occupancy
_atom_site_attached_hydrogens
Al1 Al3+ 2 a 0 0 0 0.24 0.9 0
Ga1 Ga3+ 2 a 0 0 0 0.24 0.1 0
Ga2 Ga3+ 4 f 0.3333 0.6667 0.0248 0.33 0.97 0
Al2 Al3+ 4 f 0.3333 0.6667 0.0248 0.33 0.03 0
Ga3 Ga3+ 4 f 0.3333 0.6667 0.1758(1) 0.35 0.33 0
Al3 Al3+ 4 f 0.3333 0.6667 0.1758(1) 0.35 0.67 0
Ga4 Ga3+ 12 k 0.8324(1) 0.6648(2) 0.1079 0.38 0.19 0
Al4 Al3+ 12 k 0.8324(1) 0.6648(2) 0.1079 0.38 0.81 0
O1 O2- 4 e 0 0 0.1441(2) 0.52 1. 0
O2 O2- 4 f 0.6667 0.3333 0.0573(2) 0.41 1. 0
O3 O2- 6 h 0.3023(7) 0.6046(14) 0.25 . 0.333 0
O4 O2- 12 k 0.1531(3) 0.3062(6) 0.0511(1) 0.44 1. 0
O5 O2- 12 k 0.5038(4) 0.0076(8) 0.1475(1) 0.56 1. 0
Na1 Na1+ 2 d 0.6667 0.3333 0.25 . 0.72 0
Na2 Na1+ 6 h 0.9003(30) 0.8006(60) 0.25 . 0.16 0
Na3 Na1+ 6 h 0.7703(27) 0.5406(54) 0.25 1. 0.04 0
O6 O2- 6 h 0.9003(30) 0.8006(60) 0.25 . 0.053 0
loop_
_atom_site_aniso_label
_atom_site_aniso_type_symbol
_atom_site_aniso_U_11
_atom_site_aniso_U_22
_atom_site_aniso_U_33
_atom_site_aniso_U_12
_atom_site_aniso_U_13
_atom_site_aniso_U_23
O3 O2- 0.00462 0.00452 0.00052 0.00226 0 0
Na1 Na1+ 0.02258 0.02258 0.0026 0.01129 0 0
Na2 Na1+ 0.01151 0.026 0.0013 0.013 0 0
O6 O2- 0.01151 0.026 0.0013 0.013 0 0
#End of TTdata_80585-ICSD