
#(C) 2019 by FIZ Karlsruhe - Leibniz Institute for Information Infrastructure.  All rights reserved.
data_80586-ICSD
_database_code_ICSD 80586
_audit_creation_date 1997-05-13
_chemical_name_systematic
'Neodymium sodium aluminium gallium oxide (0.3/0.8/7.4/3.6/17.3)'
_chemical_formula_structural 'Nd0.26 Na0.77 Al7.38 Ga3.62 O17.27'
_chemical_formula_sum 'Al7.38 Ga3.62 Na0.77 Nd0.26 O17.27'
_chemical_name_structure_type NaAl11O17
_exptl_crystal_density_diffrn 4.17
_publ_section_title

;
Structural refinements on a sodium beta-aluminogallate crystal and a parent
Nd(3+)-exchanged crystal
;
loop_
_citation_id
_citation_journal_full
_citation_year
_citation_journal_volume
_citation_page_first
_citation_page_last
_citation_journal_id_ASTM
primary 'Journal of Solid State Chemistry' 1991 91 71 81 JSSCBI
loop_
_publ_author_name
'Kahn-Harari, A.'
'Aka, G.'
'Thery, J.'
_cell_length_a 5.644
_cell_length_b 5.644
_cell_length_c 22.6100(10)
_cell_angle_alpha 90.
_cell_angle_beta 90.
_cell_angle_gamma 120.
_cell_volume 623.74
_cell_formula_units_Z 2
_symmetry_space_group_name_H-M 'P 63/m m c'
_symmetry_Int_Tables_number 194
_refine_ls_R_factor_all 0.049
loop_
_symmetry_equiv_pos_site_id
_symmetry_equiv_pos_as_xyz
1 'x, x-y, -z+1/2'
2 '-x+y, y, -z+1/2'
3 '-y, -x, -z+1/2'
4 '-x+y, -x, -z+1/2'
5 '-y, x-y, -z+1/2'
6 'x, y, -z+1/2'
7 '-x, -x+y, z+1/2'
8 'x-y, -y, z+1/2'
9 'y, x, z+1/2'
10 'x-y, x, z+1/2'
11 'y, -x+y, z+1/2'
12 '-x, -y, z+1/2'
13 '-x, -x+y, -z'
14 'x-y, -y, -z'
15 'y, x, -z'
16 'x-y, x, -z'
17 'y, -x+y, -z'
18 '-x, -y, -z'
19 'x, x-y, z'
20 '-x+y, y, z'
21 '-y, -x, z'
22 '-x+y, -x, z'
23 '-y, x-y, z'
24 'x, y, z'
loop_
_atom_type_symbol
_atom_type_oxidation_number
Al3+ 3
Ga3+ 3
Al3+ 3
Ga3+ 3
Al3+ 3
O2- -2
Nd3+ 3
Na1+ 1
O2- -2
loop_
_atom_site_label
_atom_site_type_symbol
_atom_site_symmetry_multiplicity
_atom_site_Wyckoff_symbol
_atom_site_fract_x
_atom_site_fract_y
_atom_site_fract_z
_atom_site_B_iso_or_equiv
_atom_site_occupancy
_atom_site_attached_hydrogens
Al1 Al3+ 2 a 0 0 0 0.33 1. 0
Ga1 Ga3+ 4 f 0.3333 0.6667 0.0246(1) 0.23 1. 0
Ga2 Ga3+ 4 f 0.3333 0.6667 0.1774(1) 0.39 0.3 0
Al2 Al3+ 4 f 0.3333 0.6667 0.1774(1) 0.39 0.7 0
Ga3 Ga3+ 12 k 0.8325(2) 0.6650(4) 0.1083(1) 0.46 0.17 0
Al3 Al3+ 12 k 0.8325(2) 0.6650(4) 0.1083(1) 0.46 0.83 0
O1 O2- 4 e 0 0 0.1433(2) 0.4 1. 0
O2 O2- 4 f 0.6667 0.3333 0.0573(3) 0.29 1. 0
O3 O2- 6 h 0.379(3) 0.758(6) 0.25 3.2 0.333 0
O4 O2- 12 k 0.1530(5) 0.306(1) 0.0506(2) 0.22 1. 0
O5 O2- 12 k 0.5043(6) 0.0086(12) 0.1477(2) 0.45 1. 0
Nd1 Nd3+ 6 h 0.6892(6) 0.3784(12) 0.25 2.5 0.0867 0
Na1 Na1+ 6 h 0.6892(6) 0.3784(12) 0.25 2.5 0.2567 0
O6 O2- 12 k 0.8009(34) 0.6018(68) 0.240(43) 14. 0.045 0
#End of TTdata_80586-ICSD