
#(C) 2019 by FIZ Karlsruhe - Leibniz Institute for Information Infrastructure.  All rights reserved.
data_80659-ICSD
_database_code_ICSD 80659
_audit_creation_date 1997-05-13
_audit_update_record 2015-02-01
_chemical_name_systematic 'Sodium dirubidium tecto-hexaniobotriphosphate(V)'
_chemical_formula_structural 'Na Rb2 (Nb6 P3 O24)'
_chemical_formula_sum 'Na1 Nb6 O24 P3 Rb2'
_chemical_name_structure_type NaRb2Nb6P3O24
_exptl_crystal_density_diffrn 3.83
_publ_section_title
'A large family of niobium phosphates with the Ca0.5 Cs2 Nb6 P3 O24 structure'
loop_
_citation_id
_citation_journal_full
_citation_year
_citation_journal_volume
_citation_page_first
_citation_page_last
_citation_journal_id_ASTM
primary 'Materials Research Bulletin' 1991 26 301 307 MRBUAC
loop_
_publ_author_name
'Costentin, G.'
'Borel, M.M.'
'Grandin, A.'
'Leclaire, A.'
'Raveau, B.'
_cell_length_a 13.3518(5)
_cell_length_b 13.3518(5)
_cell_length_c 10.3415(5)
_cell_angle_alpha 90.
_cell_angle_beta 90.
_cell_angle_gamma 120.
_cell_volume 1596.59
_cell_formula_units_Z 3
_symmetry_space_group_name_H-M 'R 3 2 H'
_symmetry_Int_Tables_number 155
_refine_ls_R_factor_all 0.048
loop_
_symmetry_equiv_pos_site_id
_symmetry_equiv_pos_as_xyz
1 '-x, -x+y, -z'
2 'x-y, -y, -z'
3 'y, x, -z'
4 '-x+y, -x, z'
5 '-y, x-y, z'
6 'x, y, z'
7 '-x+2/3, -x+y+1/3, -z+1/3'
8 'x-y+2/3, -y+1/3, -z+1/3'
9 'y+2/3, x+1/3, -z+1/3'
10 '-x+y+2/3, -x+1/3, z+1/3'
11 '-y+2/3, x-y+1/3, z+1/3'
12 'x+2/3, y+1/3, z+1/3'
13 '-x+1/3, -x+y+2/3, -z+2/3'
14 'x-y+1/3, -y+2/3, -z+2/3'
15 'y+1/3, x+2/3, -z+2/3'
16 '-x+y+1/3, -x+2/3, z+2/3'
17 '-y+1/3, x-y+2/3, z+2/3'
18 'x+1/3, y+2/3, z+2/3'
loop_
_atom_type_symbol
_atom_type_oxidation_number
Rb1+ 1
Na1+ 1
Nb5+ 5
P5+ 5
O2- -2
loop_
_atom_site_label
_atom_site_type_symbol
_atom_site_symmetry_multiplicity
_atom_site_Wyckoff_symbol
_atom_site_fract_x
_atom_site_fract_y
_atom_site_fract_z
_atom_site_B_iso_or_equiv
_atom_site_occupancy
_atom_site_attached_hydrogens
Rb1 Rb1+ 18 f 0.3607(5) 0.3332(6) 0.2274(9) 5.5(2) 0.333 0
Na1 Na1+ 3 a 0 0 0 1.3(2) 1. 0
Nb1 Nb5+ 18 f 0.52159(6) 0.16187(6) 0.01413(8) 0.34(1) 1. 0
P1 P5+ 9 d 0.2296(3) 0 0 0.30(7) 1. 0
O1 O2- 18 f 0.1462(6) 0.9754(6) 0.1153(7) 0.7(1) 1. 0
O2 O2- 9 e 0.1528(9) 0 0.5 0.7(2) 1. 0
O3 O2- 18 f 0.3450(6) 0.1071(6) 0.0274(8) 0.7(1) 1. 0
O4 O2- 9 d 0.4748(9) 0 0 0.8(2) 1. 0
O5 O2- 18 f 0.6782(6) 0.2182(6) 0.0316(8) 0.8(1) 1. 0
#End of TTdata_80659-ICSD