
#(C) 2019 by FIZ Karlsruhe - Leibniz Institute for Information Infrastructure.  All rights reserved.
data_80806-ICSD
_database_code_ICSD 80806
_audit_creation_date 1997-05-13
_audit_update_record 2006-04-01
_chemical_name_systematic 'Trisodium dichromium trifluoride bis(phosphate(V))'
_chemical_formula_structural 'Na3 Cr2 F3 (P O4)2'
_chemical_formula_sum 'Cr2 F3 Na3 O8 P2'
_chemical_name_structure_type Al2Na3-x(PO4)2F3
_exptl_crystal_density_diffrn 3.27
_publ_section_title 'Preparation and crystal structure of Na3 Cr2 F3 (P O4)2'
loop_
_citation_id
_citation_journal_full
_citation_year
_citation_journal_volume
_citation_page_first
_citation_page_last
_citation_journal_id_ASTM
primary 'Zhurnal Neorganicheskoi Khimii' 1989 34 2473 2475 ZNOKAQ
loop_
_publ_author_name
'Slobodyanik, N.S.'
'Nagornyi, P.G.'
'Kornienko, Z.I.'
'Kapshuk, A.A.'
'Mitkevich, V.V.'
_cell_length_a 6.341(1)
_cell_length_b 6.341(1)
_cell_length_c 10.613(2)
_cell_angle_alpha 90.
_cell_angle_beta 90.
_cell_angle_gamma 90.
_cell_volume 426.73
_cell_formula_units_Z 2
_symmetry_space_group_name_H-M 'I 4/m m m'
_symmetry_Int_Tables_number 139
_refine_ls_R_factor_all 0.042
loop_
_symmetry_equiv_pos_site_id
_symmetry_equiv_pos_as_xyz
1 'y, x, -z'
2 '-y, -x, -z'
3 '-y, x, -z'
4 'y, -x, -z'
5 '-x, y, -z'
6 'x, -y, -z'
7 'x, y, -z'
8 '-x, -y, -z'
9 '-y, -x, z'
10 'y, x, z'
11 'y, -x, z'
12 '-y, x, z'
13 'x, -y, z'
14 '-x, y, z'
15 '-x, -y, z'
16 'x, y, z'
17 'y+1/2, x+1/2, -z+1/2'
18 '-y+1/2, -x+1/2, -z+1/2'
19 '-y+1/2, x+1/2, -z+1/2'
20 'y+1/2, -x+1/2, -z+1/2'
21 '-x+1/2, y+1/2, -z+1/2'
22 'x+1/2, -y+1/2, -z+1/2'
23 'x+1/2, y+1/2, -z+1/2'
24 '-x+1/2, -y+1/2, -z+1/2'
25 '-y+1/2, -x+1/2, z+1/2'
26 'y+1/2, x+1/2, z+1/2'
27 'y+1/2, -x+1/2, z+1/2'
28 '-y+1/2, x+1/2, z+1/2'
29 'x+1/2, -y+1/2, z+1/2'
30 '-x+1/2, y+1/2, z+1/2'
31 '-x+1/2, -y+1/2, z+1/2'
32 'x+1/2, y+1/2, z+1/2'
loop_
_atom_type_symbol
_atom_type_oxidation_number
Cr3+ 3
P5+ 5
F1- -1
Na1+ 1
O2- -2
loop_
_atom_site_label
_atom_site_type_symbol
_atom_site_symmetry_multiplicity
_atom_site_Wyckoff_symbol
_atom_site_fract_x
_atom_site_fract_y
_atom_site_fract_z
_atom_site_B_iso_or_equiv
_atom_site_occupancy
_atom_site_attached_hydrogens
Cr1 Cr3+ 4 e 0 0 0.18262(7) 0.23 1. 0
P1 P5+ 4 d 0.5 0 0.25 0.26 1. 0
F1 F1- 2 a 0 0 0 0.51 1. 0
F2 F1- 4 e 0 0 0.3634(3) 1.04 1. 0
Na1 Na1+ 8 h 0.2749(7) 0.2749(7) 0 1.72 0.3333 0
Na2 Na1+ 8 j 0.218(2) 0.5 0 3.36 0.1667 0
Na3 Na1+ 16 l 0.242(2) 0.348(2) 0 2.07 0.125 0
O1 O2- 16 n 0.3079(3) 0 0.1620(3) 0.78 1. 0
#End of TTdata_80806-ICSD