
#(C) 2019 by FIZ Karlsruhe - Leibniz Institute for Information Infrastructure.  All rights reserved.
data_81135-ICSD
_database_code_ICSD 81135
_audit_creation_date 1997-05-13
_audit_update_record 2007-08-01
_chemical_name_systematic 'Potassium sodium tecto-alumotrisilicate'
_chemical_formula_structural '(K0.94 Na0.06) (Al Si3 O8)'
_chemical_formula_sum 'Al1 K0.94 Na0.06 O8 Si3'
_chemical_name_structure_type Feldspar#-(MO,C12/m1)-KAlSi3O8
_chemical_name_mineral Orthoclase
_exptl_crystal_density_diffrn 2.55
_publ_section_title
'Characterization of lattice strain induced by neutron irradiation'
loop_
_citation_id
_citation_journal_full
_citation_year
_citation_journal_volume
_citation_page_first
_citation_page_last
_citation_journal_id_ASTM
primary 'Physics and Chemistry of Minerals' 1995 22 399 405 PCMIDU
loop_
_publ_author_name
'Tseng, H.-Y.'
'Heaney, P.J.'
'Onstott, T.C.'
_cell_length_a 8.5880(8)
_cell_length_b 13.0049(12)
_cell_length_c 7.1924(7)
_cell_angle_alpha 90.
_cell_angle_beta 116.026(2)
_cell_angle_gamma 90.
_cell_volume 721.83
_cell_formula_units_Z 4
_symmetry_space_group_name_H-M 'C 1 2/m 1'
_symmetry_Int_Tables_number 12
_refine_ls_R_factor_all 0.088
loop_
_symmetry_equiv_pos_site_id
_symmetry_equiv_pos_as_xyz
1 '-x, y, -z'
2 '-x, -y, -z'
3 'x, -y, z'
4 'x, y, z'
5 '-x+1/2, y+1/2, -z'
6 '-x+1/2, -y+1/2, -z'
7 'x+1/2, -y+1/2, z'
8 'x+1/2, y+1/2, z'
loop_
_atom_type_symbol
_atom_type_oxidation_number
Si4+ 4
Al3+ 3
Si4+ 4
Al3+ 3
O2- -2
K1+ 1
Na1+ 1
loop_
_atom_site_label
_atom_site_type_symbol
_atom_site_symmetry_multiplicity
_atom_site_Wyckoff_symbol
_atom_site_fract_x
_atom_site_fract_y
_atom_site_fract_z
_atom_site_B_iso_or_equiv
_atom_site_occupancy
_atom_site_attached_hydrogens
Si1 Si4+ 8 j 0.0090(6) 0.1842(4) 0.2226(8) 0.002 0.75 0
Al1 Al3+ 8 j 0.0090(6) 0.1842(4) 0.2226(8) 0.002 0.25 0
Si2 Si4+ 8 j 0.7078(6) 0.11848(34) 0.3395(7) 0.002 0.75 0
Al2 Al3+ 8 j 0.7078(6) 0.11848(34) 0.3395(7) 0.002 0.25 0
O1 O2- 4 g 0 0.1487(10) 0 0.012 1. 0
O2 O2- 4 i 0.6328(15) 0 0.2782(20) 0.012 1. 0
O3 O2- 8 j 0.8307(12) 0.1466(7) 0.2218(14) 0.012 1. 0
O4 O2- 8 j 0.0364(12) 0.3126(8) 0.2546(16) 0.012 1. 0
O5 O2- 8 j 0.1821(12) 0.1254(7) 0.4063(14) 0.012 1. 0
K1 K1+ 4 i 0.2832(6) 0 0.1358(7) 0.006 0.94 0
Na1 Na1+ 4 i 0.2832(6) 0 0.1358(7) 0.006 0.06 0
#End of TTdata_81135-ICSD