
#(C) 2019 by FIZ Karlsruhe - Leibniz Institute for Information Infrastructure.  All rights reserved.
data_8115-ICSD
_database_code_ICSD 8115
_audit_creation_date 1980-01-01
_audit_update_record 1995-01-10
_chemical_name_systematic 'Tetracadmium sodium phosphate'
_chemical_formula_structural 'Cd4 Na (P O4)3'
_chemical_formula_sum 'Cd4 Na1 O12 P3'
_chemical_name_structure_type Ca5(PO4)2SiO4
_exptl_crystal_density_diffrn 4.98
_publ_section_title
'The crystal structure of Cadmium sodium orthophosphate Cd4 Na (P O4)3'
loop_
_citation_id
_citation_journal_full
_citation_year
_citation_journal_volume
_citation_page_first
_citation_page_last
_citation_journal_id_ASTM
primary

;
Acta Crystallographica, Section B: Structural Crystallography and Crystal
Chemistry
; 1979 35 1567 1569 ACBCAR
loop_
_publ_author_name
'Ben Amara, M.'
'Olazcuaga, R.'
'le Flem, G.'
'Vlasse, M.'
_cell_length_a 6.670(2)
_cell_length_b 15.10(3)
_cell_length_c 10.04
_cell_angle_alpha 90.
_cell_angle_beta 90.
_cell_angle_gamma 90.
_cell_volume 1011.2
_cell_formula_units_Z 4
_symmetry_space_group_name_H-M 'P n m a'
_symmetry_Int_Tables_number 62
_refine_ls_R_factor_all 0.058
loop_
_symmetry_equiv_pos_site_id
_symmetry_equiv_pos_as_xyz
1 'x+1/2, y, -z+1/2'
2 'x, -y+1/2, z'
3 '-x+1/2, y+1/2, z+1/2'
4 '-x, -y, -z'
5 '-x+1/2, -y, z+1/2'
6 '-x, y+1/2, -z'
7 'x+1/2, -y+1/2, -z+1/2'
8 'x, y, z'
loop_
_atom_type_symbol
_atom_type_oxidation_number
Cd2+ 2
Na1+ 1
P5+ 5
O2- -2
loop_
_atom_site_label
_atom_site_type_symbol
_atom_site_symmetry_multiplicity
_atom_site_Wyckoff_symbol
_atom_site_fract_x
_atom_site_fract_y
_atom_site_fract_z
_atom_site_B_iso_or_equiv
_atom_site_occupancy
_atom_site_attached_hydrogens
Cd1 Cd2+ 8 d 0.3354(1) 0.3910(1) 0.3382(1) . 1. 0
Cd2 Cd2+ 8 d 0.1436(1) 0.5939(1) 0.4391(1) . 1. 0
Na1 Na1+ 4 c 0.4503(5) 0.75 0.2850(4) . 1. 0
P1 P5+ 4 c 0.0073(5) 0.25 0.4143(3) . 1. 0
P2 P5+ 8 d 0.1507(3) 0.5679(1) 0.1329(2) . 1. 0
O1 O2- 8 d 0.9764(7) 0.6029(5) 0.0446(5) . 1. 0
O2 O2- 8 d 0.3230(7) 0.5457(3) 0.0318(5) . 1. 0
O3 O2- 8 d 0.2161(8) 0.6420(4) 0.2282(5) . 1. 0
O4 O2- 8 d 0.0974(8) 0.4855(4) 0.2160(5) . 1. 0
O5 O2- 8 d 0.9237(13) 0.1652(4) 0.3536(6) . 1. 0
O6 O2- 4 c 0.9390(13) 0.25 0.5595(8) . 1. 0
O7 O2- 4 c 0.2391(16) 0.25 0.3995(13) . 1. 0
loop_
_atom_site_aniso_label
_atom_site_aniso_type_symbol
_atom_site_aniso_U_11
_atom_site_aniso_U_22
_atom_site_aniso_U_33
_atom_site_aniso_U_12
_atom_site_aniso_U_13
_atom_site_aniso_U_23
Cd1 Cd2+ 0.0152(1) 0.0145(2) 0.0096(1) -.0023(1) 0.0023(1) -.0020(1)
Cd2 Cd2+ 0.0076(1) 0.0115(1) 0.0119(1) 0.0003(1) 0.0021(1) 0.0008(1)
Na1 Na1+ 0.0010(8) 0.0016(9) 0.0161(16) -.0004(4) -.0004(4) -.0004(4)
P1 P5+ 0.0181(11) 0.0061(9) 0.0062(8) -.0028(7) -.0028(7) -.0028(7)
P2 P5+ 0.0043(4) 0.0082(5) 0.0047(4) 0.0006(4) 0.0006(4) 0.0003(3)
O1 O2- 0.0052(12) 0.0333(31) 0.0120(17) -.0030(17) 0.0019(11) 0.0039(19)
O2 O2- 0.0064(12) 0.0116(17) 0.0094(14) 0.0003(11) 0.0032(11) 0.0014(11)
O3 O2- 0.0130(17) 0.0187(22) 0.0075(15) 0.0028(16) -.0011(13) 0.0045(14)
O4 O2- 0.0147(18) 0.0134(20) 0.0110(17) 0.0034(15) 0.0006(7) -.0032(14)
O5 O2- 0.0520(45) 0.0094(20) 0.0098(19) -.0070(24) 0.0059(24) 0.0030(15)
O6 O2- 0.0239(34) 0.0138(28) 0.0063(20) 0.0026(23) 0.0026(23) 0.0026(23)
O7 O2- 0.0213(41) 0.0247(44) 0.0363(58) 0.0156(41) 0.0156(41) 0.0156(41)
#End of TTdata_8115-ICSD