
#(C) 2019 by FIZ Karlsruhe - Leibniz Institute for Information Infrastructure.  All rights reserved.
data_81219-ICSD
_database_code_ICSD 81219
_audit_creation_date 1997-11-05
_chemical_name_systematic 'Sodium manganese undecafluorodizirconate'
_chemical_formula_structural 'Na Mn (Zr2 F11)'
_chemical_formula_sum 'F11 Mn1 Na1 Zr2'
_chemical_name_structure_type AgPdZr2F11
_exptl_crystal_density_diffrn 3.62
_publ_section_title 'Na M(II) Zr2 F11 (M(II) = Mn, Fe, Co, Ni, Zn) fluorides'
loop_
_citation_id
_citation_journal_full
_citation_year
_citation_journal_volume
_citation_page_first
_citation_page_last
_citation_journal_id_ASTM
primary 'Acta Crystallographica, Section C: Crystal Structure Communications'
1995 51 2207 2210 ACSCEE
loop_
_publ_author_name
'Kettani, M.H.'
'Avignant, D.'
'Metin, J.'
_cell_length_a 9.131(2)
_cell_length_b 6.775(1)
_cell_length_c 7.769(2)
_cell_angle_alpha 90.
_cell_angle_beta 116.22(2)
_cell_angle_gamma 90.
_cell_volume 431.16
_cell_formula_units_Z 2
_symmetry_space_group_name_H-M 'C 1 2/m 1'
_symmetry_Int_Tables_number 12
_refine_ls_R_factor_all 0.036
loop_
_symmetry_equiv_pos_site_id
_symmetry_equiv_pos_as_xyz
1 '-x, y, -z'
2 '-x, -y, -z'
3 'x, -y, z'
4 'x, y, z'
5 '-x+1/2, y+1/2, -z'
6 '-x+1/2, -y+1/2, -z'
7 'x+1/2, -y+1/2, z'
8 'x+1/2, y+1/2, z'
loop_
_atom_type_symbol
_atom_type_oxidation_number
Na1+ 1
Mn2+ 2
Zr4+ 4
F1- -1
loop_
_atom_site_label
_atom_site_type_symbol
_atom_site_symmetry_multiplicity
_atom_site_Wyckoff_symbol
_atom_site_fract_x
_atom_site_fract_y
_atom_site_fract_z
_atom_site_B_iso_or_equiv
_atom_site_occupancy
_atom_site_attached_hydrogens
Na1 Na1+ 2 a 0 0 0 . 1. 0
Mn1 Mn2+ 2 c 0 0 0.5 . 1. 0
Zr1 Zr4+ 4 i 0.50168(4) 0 0.23286(5) . 1. 0
F1 F1- 2 d 0 0.5 0.5 . 1. 0
F2 F1- 4 g 0 0.3310(4) 0 . 1. 0
F3 F1- 4 i 0.2537(3) 0 0.6489(4) . 1. 0
F4 F1- 4 i 0.2652(3) 0 0.1082(5) . 1. 0
F5 F1- 8 j 0.0116(2) 0.2104(3) 0.3074(3) . 1. 0
loop_
_atom_site_aniso_label
_atom_site_aniso_type_symbol
_atom_site_aniso_U_11
_atom_site_aniso_U_22
_atom_site_aniso_U_33
_atom_site_aniso_U_12
_atom_site_aniso_U_13
_atom_site_aniso_U_23
Na1 Na1+ 0.014(1) 0.012(1) 0.092(3) 0 0.014(1) 0
Mn1 Mn2+ 0.0102(2) 0.0083(3) 0.0088(2) 0 0.0050(2) 0
Zr1 Zr4+ 0.01040(9) 0.0085(1) 0.00753(8) 0 0.00555(6) 0
F1 F1- 0.073(2) 0.023(2) 0.023(1) 0 0.0359(9) 0
F2 F1- 0.038(1) 0.009(1) 0.0148(7) 0 0.0176(5) 0
F3 F1- 0.0122(9) 0.032(2) 0.028(1) 0 0.0060(8) 0
F4 F1- 0.0093(9) 0.037(2) 0.040(1) 0 0.0077(8) 0
F5 F1- 0.0331(7) 0.0132(8) 0.0173(5) 0.0002(7) 0.0145(4) 0.0039(5)
#End of TTdata_81219-ICSD