
#(C) 2019 by FIZ Karlsruhe - Leibniz Institute for Information Infrastructure.  All rights reserved.
data_81220-ICSD
_database_code_ICSD 81220
_audit_creation_date 1997-11-05
_chemical_name_systematic 'Sodium iron(II) undecafluorodizirconate'
_chemical_formula_structural 'Na Fe (Zr2 F11)'
_chemical_formula_sum 'F11 Fe1 Na1 Zr2'
_chemical_name_structure_type AgPdZr2F11
_exptl_crystal_density_diffrn 3.67
_publ_section_title 'Na M(II) Zr2 F11 (M(II) = Mn, Fe, Co, Ni, Zn) fluorides'
loop_
_citation_id
_citation_journal_full
_citation_year
_citation_journal_volume
_citation_page_first
_citation_page_last
_citation_journal_id_ASTM
primary 'Acta Crystallographica, Section C: Crystal Structure Communications'
1995 51 2207 2210 ACSCEE
loop_
_publ_author_name
'Kettani, M.H.'
'Avignant, D.'
'Metin, J.'
_cell_length_a 9.069(3)
_cell_length_b 6.736(1)
_cell_length_c 7.757(1)
_cell_angle_alpha 90.
_cell_angle_beta 116.22(1)
_cell_angle_gamma 90.
_cell_volume 425.11
_cell_formula_units_Z 2
_symmetry_space_group_name_H-M 'C 1 2/m 1'
_symmetry_Int_Tables_number 12
_refine_ls_R_factor_all 0.022
loop_
_symmetry_equiv_pos_site_id
_symmetry_equiv_pos_as_xyz
1 '-x, y, -z'
2 '-x, -y, -z'
3 'x, -y, z'
4 'x, y, z'
5 '-x+1/2, y+1/2, -z'
6 '-x+1/2, -y+1/2, -z'
7 'x+1/2, -y+1/2, z'
8 'x+1/2, y+1/2, z'
loop_
_atom_type_symbol
_atom_type_oxidation_number
Na1+ 1
Fe2+ 2
Zr4+ 4
F1- -1
loop_
_atom_site_label
_atom_site_type_symbol
_atom_site_symmetry_multiplicity
_atom_site_Wyckoff_symbol
_atom_site_fract_x
_atom_site_fract_y
_atom_site_fract_z
_atom_site_B_iso_or_equiv
_atom_site_occupancy
_atom_site_attached_hydrogens
Na1 Na1+ 2 a 0 0 0 . 1. 0
Fe1 Fe2+ 2 c 0 0 0.5 . 1. 0
Zr1 Zr4+ 4 i 0.50364(2) 0 0.23462(2) . 1. 0
F1 F1- 2 d 0 0.5 0.5 . 1. 0
F2 F1- 4 g 0 0.3301(2) 0 . 1. 0
F3 F1- 4 i 0.2504(1) 0 0.6497(2) . 1. 0
F4 F1- 4 i 0.2665(2) 0 0.1094(3) . 1. 0
F5 F1- 8 j 0.0143(1) 0.2076(1) 0.3095(1) . 1. 0
loop_
_atom_site_aniso_label
_atom_site_aniso_type_symbol
_atom_site_aniso_U_11
_atom_site_aniso_U_22
_atom_site_aniso_U_33
_atom_site_aniso_U_12
_atom_site_aniso_U_13
_atom_site_aniso_U_23
Na1 Na1+ 0.0139(4) 0.0111(5) 0.093(1) 0 0.0152(5) 0
Fe1 Fe2+ 0.01075(8) 0.0079(1) 0.00809(8) 0 0.00384(6) 0
Zr1 Zr4+ 0.01003(4) 0.00736(5) 0.00579(3) 0 0.00352(3) 0
F1 F1- 0.0771(9) 0.0215(8) 0.0217(5) 0 0.0357(4) 0
F2 F1- 0.0361(4) 0.0073(3) 0.0124(3) 0 0.0143(2) 0
F3 F1- 0.0114(4) 0.0300(7) 0.0247(5) 0 0.0038(4) 0
F4 F1- 0.0108(4) 0.0381(8) 0.0389(6) 0 0.0058(4) 0
F5 F1- 0.0333(3) 0.0111(3) 0.0168(2) -.0002(3) 0.0137(2) 0.0032(2)
#End of TTdata_81220-ICSD