
#(C) 2019 by FIZ Karlsruhe - Leibniz Institute for Information Infrastructure.  All rights reserved.
data_81224-ICSD
_database_code_ICSD 81224
_audit_creation_date 1997-11-05
_chemical_name_systematic 'Sodium cerium sulfate(V) hydrate'
_chemical_formula_structural 'Na Ce (S O4)2 (H2 O)'
_chemical_formula_sum 'H2 Ce1 Na1 O9 S2'
_exptl_crystal_density_diffrn 3.37
_cell_measurement_temperature 296.
_publ_section_title

;
Redetermination of sodium cerium(III) sulfate monohydrate, Na Ce (S O4)2 . H2
O
;
loop_
_citation_id
_citation_journal_full
_citation_year
_citation_journal_volume
_citation_page_first
_citation_page_last
_citation_journal_id_ASTM
primary 'Acta Crystallographica, Section C: Crystal Structure Communications'
1995 51 2215 2218 ACSCEE
loop_
_publ_author_name
'Blackburn, A.C.'
'Gerkin, R.E.'
_cell_length_a 7.019(1)
_cell_length_b 7.019(1)
_cell_length_c 12.925(2)
_cell_angle_alpha 90.
_cell_angle_beta 90.
_cell_angle_gamma 120.
_cell_volume 551.46
_cell_formula_units_Z 3
_symmetry_space_group_name_H-M 'P 32 2 1'
_symmetry_Int_Tables_number 154
_refine_ls_R_factor_all 0.017
loop_
_symmetry_equiv_pos_site_id
_symmetry_equiv_pos_as_xyz
1 '-x, -x+y, -z+2/3'
2 'x-y, -y, -z+1/3'
3 'y, x, -z'
4 '-x+y, -x, z+1/3'
5 '-y, x-y, z+2/3'
6 'x, y, z'
loop_
_atom_type_symbol
_atom_type_oxidation_number
Ce3+ 3
S6+ 6
Na1+ 1
O2- -2
H1+ 1
loop_
_atom_site_label
_atom_site_type_symbol
_atom_site_symmetry_multiplicity
_atom_site_Wyckoff_symbol
_atom_site_fract_x
_atom_site_fract_y
_atom_site_fract_z
_atom_site_B_iso_or_equiv
_atom_site_occupancy
_atom_site_attached_hydrogens
Ce1 Ce3+ 3 a 0.43376(5) 0 0.6667 . 1. 0
S1 S6+ 6 c 0.4528(2) 0.0115(2) 0.91277(7) . 1. 0
Na1 Na1+ 3 b 0.4656(3) 0 0.1667 . 1. 0
O1 O2- 6 c 0.4972(6) 0.8785(6) 0.9856(2) . 1. 0
O2 O2- 6 c 0.2599(5) 0.8692(5) 0.8474(2) . 1. 0
O3 O2- 6 c 0.6372(6) 0.1339(6) 0.8404(2) . 1. 0
O4 O2- 6 c 0.4100(6) 0.1627(6) 0.9738(2) . 1. 0
O5 O2- 6 c 0.0716(11) -.0076(18) 0.6450(6) . 0.5 0
H1 H1+ 6 c 0.0637 0.1246 0.6574 0.1219 1. 0
loop_
_atom_site_aniso_label
_atom_site_aniso_type_symbol
_atom_site_aniso_U_11
_atom_site_aniso_U_22
_atom_site_aniso_U_33
_atom_site_aniso_U_12
_atom_site_aniso_U_13
_atom_site_aniso_U_23
Ce1 Ce3+ 0.0107(2) 0.0093(2) 0.0082(2) 0.0046(1) 0.0001(1) 0.0002(1)
S1 S6+ 0.0114(4) 0.0079(5) 0.0075(4) 0.0050(4) -.0009(3) -.0021(3)
Na1 Na1+ 0.0115(8) 0.0014(10) 0.0047(9) 0.0007(5) -.0001(3) -.0002(7)
O1 O2- 0.027(2) 0.014(2) 0.014(1) 0.012(2) -.003(1) 0.004(1)
O2 O2- 0.011(2) 0.015(2) 0.016(1) 0.003(1) -.004(1) -.003(1)
O3 O2- 0.017(2) 0.021(2) 0.014(1) 0.006(1) 0.001(1) -.001(1)
O4 O2- 0.022(2) 0.019(2) 0.021(2) 0.014(1) 0.001(1) -.009(1)
O5 O2- 0.0032 0.0251 0.0571 0.0025 -.0051 0.0058
#End of TTdata_81224-ICSD