
#(C) 2019 by FIZ Karlsruhe - Leibniz Institute for Information Infrastructure.  All rights reserved.
data_81222-ICSD
_database_code_ICSD 81222
_audit_creation_date 1997-11-05
_chemical_name_systematic 'Sodium nickel undecafluorodizirconate'
_chemical_formula_structural 'Na Ni (Zr2 F11)'
_chemical_formula_sum 'F11 Na1 Ni1 Zr2'
_chemical_name_structure_type AgPdZr2F11
_exptl_crystal_density_diffrn 3.78
_publ_section_title 'Na M(II) Zr2 F11 (M(II) = Mn, Fe, Co, Ni, Zn) fluorides'
loop_
_citation_id
_citation_journal_full
_citation_year
_citation_journal_volume
_citation_page_first
_citation_page_last
_citation_journal_id_ASTM
primary 'Acta Crystallographica, Section C: Crystal Structure Communications'
1995 51 2207 2210 ACSCEE
loop_
_publ_author_name
'Kettani, M.H.'
'Avignant, D.'
'Metin, J.'
_cell_length_a 9.002(2)
_cell_length_b 6.675(1)
_cell_length_c 7.709(1)
_cell_angle_alpha 90.
_cell_angle_beta 116.24(2)
_cell_angle_gamma 90.
_cell_volume 415.49
_cell_formula_units_Z 2
_symmetry_space_group_name_H-M 'C 1 2/m 1'
_symmetry_Int_Tables_number 12
_refine_ls_R_factor_all 0.034
loop_
_symmetry_equiv_pos_site_id
_symmetry_equiv_pos_as_xyz
1 '-x, y, -z'
2 '-x, -y, -z'
3 'x, -y, z'
4 'x, y, z'
5 '-x+1/2, y+1/2, -z'
6 '-x+1/2, -y+1/2, -z'
7 'x+1/2, -y+1/2, z'
8 'x+1/2, y+1/2, z'
loop_
_atom_type_symbol
_atom_type_oxidation_number
Na1+ 1
Ni2+ 2
Zr4+ 4
F1- -1
loop_
_atom_site_label
_atom_site_type_symbol
_atom_site_symmetry_multiplicity
_atom_site_Wyckoff_symbol
_atom_site_fract_x
_atom_site_fract_y
_atom_site_fract_z
_atom_site_B_iso_or_equiv
_atom_site_occupancy
_atom_site_attached_hydrogens
Na1 Na1+ 2 a 0 0 0 . 1. 0
Ni1 Ni2+ 2 c 0 0 0.5 . 1. 0
Zr1 Zr4+ 4 i 0.50626(3) 0 0.23708(3) . 1. 0
F1 F1- 2 d 0 0.5 0.5 . 1. 0
F2 F1- 4 g 0 0.3281(3) 0 . 1. 0
F3 F1- 4 i 0.2454(2) 0 0.6490(3) . 1. 0
F4 F1- 4 i 0.2671(3) 0 0.1093(4) . 1. 0
F5 F1- 8 j 0.0168(2) 0.2047(2) 0.3154(2) . 1. 0
loop_
_atom_site_aniso_label
_atom_site_aniso_type_symbol
_atom_site_aniso_U_11
_atom_site_aniso_U_22
_atom_site_aniso_U_33
_atom_site_aniso_U_12
_atom_site_aniso_U_13
_atom_site_aniso_U_23
Na1 Na1+ 0.0120(7) 0.0083(7) 0.115(2) 0 0.014(1) 0
Ni1 Ni2+ 0.0076(1) 0.0076(1) 0.0089(1) 0 0.00379(9) 0
Zr1 Zr4+ 0.00676(6) 0.00699(7) 0.00770(6) 0 0.00394(4) 0
F1 F1- 0.129(2) 0.015(1) 0.0340(8) 0 0.0608(8) 0
F2 F1- 0.0309(6) 0.0071(5) 0.0134(5) 0 0.0133(4) 0
F3 F1- 0.0076(6) 0.026(1) 0.0250(8) 0 0.0028(5) 0
F4 F1- 0.0085(6) 0.037(1) 0.051(1) 0 0.0096(6) 0
F5 F1- 0.0269(4) 0.0101(4) 0.0168(3) 0.0001(4) 0.0130(3) 0.0029(3)
#End of TTdata_81222-ICSD