
#(C) 2019 by FIZ Karlsruhe - Leibniz Institute for Information Infrastructure.  All rights reserved.
data_81223-ICSD
_database_code_ICSD 81223
_audit_creation_date 1997-11-05
_chemical_name_systematic 'Sodium zinc undecafluorodizirconate'
_chemical_formula_structural 'Na Zn (Zr2 F11)'
_chemical_formula_sum 'F11 Na1 Zn1 Zr2'
_chemical_name_structure_type AgPdZr2F11
_exptl_crystal_density_diffrn 3.81
_publ_section_title 'Na M(II) Zr2 F11 (M(II) = Mn, Fe, Co, Ni, Zn) fluorides'
loop_
_citation_id
_citation_journal_full
_citation_year
_citation_journal_volume
_citation_page_first
_citation_page_last
_citation_journal_id_ASTM
primary 'Acta Crystallographica, Section C: Crystal Structure Communications'
1995 51 2207 2210 ACSCEE
loop_
_publ_author_name
'Kettani, M.H.'
'Avignant, D.'
'Metin, J.'
_cell_length_a 9.025(3)
_cell_length_b 6.695(1)
_cell_length_c 7.721(1)
_cell_angle_alpha 90.
_cell_angle_beta 116.18(1)
_cell_angle_gamma 90.
_cell_volume 418.66
_cell_formula_units_Z 2
_symmetry_space_group_name_H-M 'C 1 2/m 1'
_symmetry_Int_Tables_number 12
_refine_ls_R_factor_all 0.028
loop_
_symmetry_equiv_pos_site_id
_symmetry_equiv_pos_as_xyz
1 '-x, y, -z'
2 '-x, -y, -z'
3 'x, -y, z'
4 'x, y, z'
5 '-x+1/2, y+1/2, -z'
6 '-x+1/2, -y+1/2, -z'
7 'x+1/2, -y+1/2, z'
8 'x+1/2, y+1/2, z'
loop_
_atom_type_symbol
_atom_type_oxidation_number
Na1+ 1
Zn2+ 2
Zr4+ 4
F1- -1
loop_
_atom_site_label
_atom_site_type_symbol
_atom_site_symmetry_multiplicity
_atom_site_Wyckoff_symbol
_atom_site_fract_x
_atom_site_fract_y
_atom_site_fract_z
_atom_site_B_iso_or_equiv
_atom_site_occupancy
_atom_site_attached_hydrogens
Na1 Na1+ 2 a 0 0 0 . 1. 0
Zn1 Zn2+ 2 c 0 0 0.5 . 1. 0
Zr1 Zr4+ 4 i 0.50534(2) 0 0.23615(3) . 1. 0
F1 F1- 2 d 0 0.5 0.5 . 1. 0
F2 F1- 4 g 0 0.3293(2) 0 . 1. 0
F3 F1- 4 i 0.2472(2) 0 0.6498(3) . 1. 0
F4 F1- 4 i 0.2670(2) 0 0.1089(3) . 1. 0
F5 F1- 8 j 0.0159(1) 0.2061(2) 0.3138(2) . 1. 0
loop_
_atom_site_aniso_label
_atom_site_aniso_type_symbol
_atom_site_aniso_U_11
_atom_site_aniso_U_22
_atom_site_aniso_U_33
_atom_site_aniso_U_12
_atom_site_aniso_U_13
_atom_site_aniso_U_23
Na1 Na1+ 0.0117(6) 0.0104(7) 0.106(2) 0 0.0138(8) 0
Zn1 Zn2+ 0.0099(1) 0.0082(1) 0.0096(1) 0 0.00509(7) 0
Zr1 Zr4+ 0.00870(5) 0.00679(7) 0.00701(5) 0 0.00477(3) 0
F1 F1- 0.104(2) 0.016(1) 0.0299(7) 0 0.0496(6) 0
F2 F1- 0.0322(5) 0.0081(5) 0.0125(4) 0 0.0141(3) 0
F3 F1- 0.0098(5) 0.0285(9) 0.0237(7) 0 0.0035(5) 0
F4 F1- 0.0116(5) 0.036(1) 0.0455(9) 0 0.0107(5) 0
F5 F1- 0.0305(4) 0.0104(4) 0.0168(3) -.0002(4) 0.0145(2) 0.0032(3)
#End of TTdata_81223-ICSD