
#(C) 2019 by FIZ Karlsruhe - Leibniz Institute for Information Infrastructure.  All rights reserved.
data_8125-ICSD
_database_code_ICSD 8125
_audit_creation_date 1980-01-01
_chemical_name_systematic 'Sodium bromide dihydrate'
_chemical_formula_structural 'Na Br (H2 O)2'
_chemical_formula_sum 'H4 Br1 Na1 O2'
_chemical_name_structure_type NaCl(H2O)2
_exptl_crystal_density_diffrn 2.16
_publ_section_title 'Neutron diffraction study of sodium bromide dihydrate'
loop_
_citation_id
_citation_journal_full
_citation_year
_citation_journal_volume
_citation_page_first
_citation_page_last
_citation_journal_id_ASTM
primary

;
Acta Crystallographica, Section B: Structural Crystallography and Crystal
Chemistry
; 1979 35 1679 1682 ACBCAR
loop_
_publ_author_name
'Tegenfeldt, J.'
'Tellgren, R.'
'Pedersen, B.'
'Olovsson, I.'
_cell_length_a 6.575(2)
_cell_length_b 10.456(5)
_cell_length_c 6.776(2)
_cell_angle_alpha 90.
_cell_angle_beta 113.38(2)
_cell_angle_gamma 90.
_cell_volume 427.59
_cell_formula_units_Z 4
_symmetry_space_group_name_H-M 'P 1 21/c 1'
_symmetry_Int_Tables_number 14
_refine_ls_R_factor_all 0.045
loop_
_symmetry_equiv_pos_site_id
_symmetry_equiv_pos_as_xyz
1 'x, -y+1/2, z+1/2'
2 '-x, -y, -z'
3 '-x, y+1/2, -z+1/2'
4 'x, y, z'
loop_
_atom_type_symbol
_atom_type_oxidation_number
Na1+ 1
Br1- -1
O2- -2
H1+ 1
O2- -2
H1+ 1
loop_
_atom_site_label
_atom_site_type_symbol
_atom_site_symmetry_multiplicity
_atom_site_Wyckoff_symbol
_atom_site_fract_x
_atom_site_fract_y
_atom_site_fract_z
_atom_site_B_iso_or_equiv
_atom_site_occupancy
_atom_site_attached_hydrogens
Na1 Na1+ 4 e 0.0157(3) 0.1686(2) 0.4566(3) . 1. 0
Br1 Br1- 4 e 0.2964(2) 0.1191(1) 0.2121(2) . 1. 0
O1 O2- 4 e 0.7903(2) 0.3131(1) 0.1772(2) . 1. 0
H1 H1+ 4 e 0.7737(6) 0.3980(3) 0.2211(5) . 1. 0
H2 H1+ 4 e 0.6442(6) 0.2908(4) 0.0884(7) . 1. 0
O2 O2- 4 e 0.2156(2) 0.4899(1) 0.2192(2) . 1. 0
H3 H1+ 4 e 0.3616(4) 0.5137(3) 0.2338(5) . 1. 0
H4 H1+ 4 e 0.2329(5) 0.4637(3) 0.3599(4) . 1. 0
loop_
_atom_site_aniso_label
_atom_site_aniso_type_symbol
_atom_site_aniso_U_11
_atom_site_aniso_U_22
_atom_site_aniso_U_33
_atom_site_aniso_U_12
_atom_site_aniso_U_13
_atom_site_aniso_U_23
Na1 Na1+ 0.0456(10) 0.0335(8) 0.0393(9) -.0018(8) 0.0185(8) 0.0008(7)
Br1 Br1- 0.0401(5) 0.0402(5) 0.0381(5) 0.0097(4) 0.0176(4) 0.0032(4)
O1 O2- 0.0407(7) 0.0385(7) 0.0479(7) 0.0040(5) 0.0154(6) 0.0024(5)
H1 H1+ 0.0765(19) 0.0502(14) 0.0740(15) 0.0100(12) 0.0388(15) 0.0012(11)
H2 H1+ 0.0492(17) 0.0951(25) 0.0995(23) -.0034(17) 0.0115(17) -.0234(20)
O2 O2- 0.0375(6) 0.0419(6) 0.0374(6) -.0022(5) 0.0129(5) 0.0043(4)
H3 H1+ 0.0443(13) 0.0709(15) 0.0659(14) -.0013(13) 0.0209(12) 0.0084(12)
H4 H1+ 0.0649(16) 0.0675(15) 0.0458(12) -.0050(13) 0.0187(12) 0.0062(11)
#End of TTdata_8125-ICSD