
#(C) 2019 by FIZ Karlsruhe - Leibniz Institute for Information Infrastructure.  All rights reserved.
data_81293-ICSD
_database_code_ICSD 81293
_audit_creation_date 1997-11-05
_chemical_name_systematic 'Trisodium tetraperoxovanadate 14-hydrate'
_chemical_formula_structural '(Na3 (V (O2)4)) (H2 O)14'
_chemical_formula_sum 'H28 Na3 O22 V1'
_exptl_crystal_density_diffrn 1.68
_cell_measurement_temperature 173.
_publ_section_title

;
Two crystal structures featuring the tetraperoxovanadate(V) anion and a brief
reinvestigation of peroxovanadate equilibria in neutral and basic solutions
;
loop_
_citation_id
_citation_journal_full
_citation_year
_citation_journal_volume
_citation_page_first
_citation_page_last
_citation_journal_id_ASTM
primary 'Inorganic Chemistry' 1995 34 4499 4503 INOCAJ
loop_
_publ_author_name
'Won, T.-J.'
'Barnes, C.L.'
'Schlemper, E.O.'
'Thompson, R.C.'
_cell_length_a 8.667(2)
_cell_length_b 9.010(2)
_cell_length_c 7.520(2)
_cell_angle_alpha 98.41(2)
_cell_angle_beta 110.59(2)
_cell_angle_gamma 63.99(2)
_cell_volume 494.02
_cell_formula_units_Z 1
_symmetry_space_group_name_H-M 'P -1'
_symmetry_Int_Tables_number 2
_refine_ls_R_factor_all 0.031
loop_
_symmetry_equiv_pos_site_id
_symmetry_equiv_pos_as_xyz
1 '-x, -y, -z'
2 'x, y, z'
loop_
_atom_type_symbol
_atom_type_oxidation_number
V5+ 5
Na1+ 1
O1- -1
O2- -2
H1+ 1
loop_
_atom_site_label
_atom_site_type_symbol
_atom_site_symmetry_multiplicity
_atom_site_Wyckoff_symbol
_atom_site_fract_x
_atom_site_fract_y
_atom_site_fract_z
_atom_site_B_iso_or_equiv
_atom_site_occupancy
_atom_site_attached_hydrogens
V1 V5+ 1 a 0 0 0 . 1. 0
Na1 Na1+ 1 h 0.5 0.5 0.5 . 1. 0
Na2 Na1+ 2 i 0.77967(8) 0.62276(8) 0.36051(9) . 1. 0
O1 O1- 2 i 0.1473(2) -.0270(1) 0.2637(2) . 1. 0
O2 O1- 2 i 0.1434(3) 0.1051(3) 0.1558(4) . 0.5 0
O3 O1- 2 i 0.0554(3) 0.8612(3) 0.2092(4) . 0.5 0
O4 O1- 2 i 0.2010(2) 0.8285(1) -.0641(2) . 1. 0
O5 O1- 2 i 0.0688(3) 0.7738(3) -.0313(4) . 0.5 0
O6 O1- 2 i 0.2037(3) -.0085(3) -.0639(3) . 0.5 0
O7 O2- 2 i 0.5775(2) 0.7037(2) 0.0497(2) . 1. 0
O8 O2- 2 i 0.5086(2) 0.7516(1) 0.4433(2) . 1. 0
O9 O2- 2 i 0.1491(2) 0.1406(2) 0.6060(2) . 1. 0
O10 O2- 2 i 0.2421(2) 0.6392(1) 0.6139(2) . 1. 0
O11 O2- 2 i 0.0539(2) 0.4307(1) 0.3043(2) . 1. 0
O12 O2- 2 i 0.2769(2) 0.5258(1) 0.2036(2) . 1. 0
O13 O2- 2 i 0.5389(2) -.0859(2) 0.7908(2) . 1. 0
H1 H1+ 2 i 0.553(3) 0.774(3) -.018(4) 1.5 1. 0
H2 H1+ 2 i 0.521(3) 0.799(3) 0.539(4) 1.5 1. 0
H3 H1+ 2 i 0.144(3) 0.084(3) 0.511(4) 1.5 1. 0
H4 H1+ 2 i 0.143(3) 0.699(3) 0.530(4) 1.5 1. 0
H5 H1+ 2 i 0.117(3) 0.448(3) 0.263(4) 1.5 1. 0
H6 H1+ 2 i 0.216(3) 0.609(3) 0.162(4) 1.5 1. 0
H7 H1+ 2 i 0.446(3) -.005(3) 0.760(4) 1.5 1. 0
H8 H1+ 2 i 0.467(3) 0.733(3) 0.043(4) 1.5 1. 0
H9 H1+ 2 i 0.409(3) 0.814(3) 0.377(4) 1.5 1. 0
H10 H1+ 2 i 0.890(3) 0.879(3) 0.334(4) 1.5 1. 0
H11 H1+ 2 i 0.235(3) 0.695(3) 0.706(4) 1.5 1. 0
H12 H1+ 2 i 0.047(3) 0.355(3) 0.245(4) 1.5 1. 0
H13 H1+ 2 i 0.311(3) 0.481(3) 0.130(4) 1.5 1. 0
H14 H1+ 2 i 0.382(3) 0.065(3) 0.179(4) 1.5 1. 0
loop_
_atom_site_aniso_label
_atom_site_aniso_type_symbol
_atom_site_aniso_B_11
_atom_site_aniso_B_22
_atom_site_aniso_B_33
_atom_site_aniso_B_12
_atom_site_aniso_B_13
_atom_site_aniso_B_23
V1 V5+ 1.17(1) 1.05(1) 0.89(1) -.644(8) 0.459(9) -.30(1)
Na1 Na1+ 1.43(3) 1.52(3) 1.19(3) -.72(2) 0.34(2) 0.05(3)
Na2 Na1+ 1.33(2) 1.59(2) 1.23(2) -.63(2) 0.40(2) -.12(2)
O1 O1- 1.80(4) 2.04(4) 1.20(4) 1.19(3) 0.39(3) -.25(3)
O2 O1- 1.80(7) 1.64(7) 1.60(9) -1.13(5) 0.49(6) -.38(7)
O3 O1- 1.71(7) 1.30(7) 1.70(8) -.80(5) 0.82(6) -.14(7)
O4 O1- 1.97(4) 1.42(4) 1.86(4) -.59(3) 0.98(3) -.36(4)
O5 O1- 1.70(7) 1.23(7) 1.67(9) -.60(5) 0.44(6) -.17(7)
O6 O1- 1.40(7) 1.63(7) 1.41(8) -.83(5) 0.58(6) -.16(7)
O7 O2- 1.85(4) 3.25(5) 1.33(5) -1.12(3) 0.32(3) 0.03(4)
O8 O2- 1.53(4) 1.61(4) 1.42(4) -.55(3) 0.50(3) -.17(4)
O9 O2- 4.24(5) 2.20(4) 1.54(4) -2.08(3) 1.35(3) -.69(4)
O10 O2- 1.46(4) 1.65(4) 1.44(4) -.56(3) 0.49(3) -.44(4)
O11 O2- 1.63(3) 1.66(4) 1.53(4) -.95(3) 0.73(3) -.46(3)
O12 O2- 1.88(4) 1.79(4) 1.26(4) -.75(3) 0.47(3) 0.04(4)
O13 O2- 1.71(4) 1.98(4) 1.80(5) -.54(3) 0.40(3) -.21(4)
#End of TTdata_81293-ICSD