
#(C) 2019 by FIZ Karlsruhe - Leibniz Institute for Information Infrastructure.  All rights reserved.
data_81292-ICSD
_database_code_ICSD 81292
_audit_creation_date 1997-11-05
_chemical_name_systematic
'Trisodium tetraperoxovanadate - perhydrate - water (1/1/10.5)'
_chemical_formula_structural '(Na3 (V (O2)4)) (H2 O2) (H2 O)10.5'
_chemical_formula_sum 'H23 Na3 O20.5 V1'
_exptl_crystal_density_diffrn 1.77
_cell_measurement_temperature 173.
_publ_section_title

;
Two crystal structures featuring the tetraperoxovanadate(V) anion and a brief
reinvestigation of peroxovanadate equilibria in neutral and basic solutions
;
loop_
_citation_id
_citation_journal_full
_citation_year
_citation_journal_volume
_citation_page_first
_citation_page_last
_citation_journal_id_ASTM
primary 'Inorganic Chemistry' 1995 34 4499 4503 INOCAJ
loop_
_publ_author_name
'Won, T.-J.'
'Barnes, C.L.'
'Schlemper, E.O.'
'Thompson, R.C.'
_cell_length_a 9.139(3)
_cell_length_b 11.774(3)
_cell_length_c 9.143(3)
_cell_angle_alpha 105.47(2)
_cell_angle_beta 104.58(2)
_cell_angle_gamma 71.65(2)
_cell_volume 884.69
_cell_formula_units_Z 2
_symmetry_space_group_name_H-M 'P -1'
_symmetry_Int_Tables_number 2
_refine_ls_R_factor_all 0.026
loop_
_symmetry_equiv_pos_site_id
_symmetry_equiv_pos_as_xyz
1 '-x, -y, -z'
2 'x, y, z'
loop_
_atom_type_symbol
_atom_type_oxidation_number
V5+ 5
Na1+ 1
O1- -1
O2- -2
H1+ 1
loop_
_atom_site_label
_atom_site_type_symbol
_atom_site_symmetry_multiplicity
_atom_site_Wyckoff_symbol
_atom_site_fract_x
_atom_site_fract_y
_atom_site_fract_z
_atom_site_B_iso_or_equiv
_atom_site_occupancy
_atom_site_attached_hydrogens
V1 V5+ 2 i 0.15550(3) 0.28380(3) 0.21203(3) . 1. 0
Na1 Na1+ 1 e 0.5 0.5 0 . 1. 0
Na2 Na1+ 2 i 0.18769(8) 0.94594(6) 0.57850(8) . 1. 0
Na3 Na1+ 2 i 0.65527(8) 0.28162(6) 0.70778(8) . 1. 0
Na4 Na1+ 2 i 0.5015(2) 0.0669(1) 0.0831(2) . 0.5 0
O1 O1- 2 i 0.3462(1) 0.3331(1) 0.2756(2) . 1. 0
O2 O1- 2 i 0.3231(1) 0.2704(1) 0.1126(1) . 1. 0
O3 O1- 2 i 0.2643(1) 0.1299(1) 0.2751(1) . 1. 0
O4 O1- 2 i 0.1950(1) 0.2258(1) 0.3978(1) . 1. 0
O5 O1- 2 i -.0348(1) 0.2305(1) 0.1404(1) . 1. 0
O6 O1- 2 i 0.0598(1) 0.1987(1) 0.0197(1) . 1. 0
O7 O1- 2 i 0.0438(2) 0.4382(1) 0.1562(1) . 1. 0
O8 O1- 2 i 0.0442(2) 0.4374(1) 0.3166(1) . 1. 0
O9 O1- 2 i 0.4787(1) 0.5124(1) 0.2593(2) . 1. 0
O10 O1- 2 i 0.7279(1) 0.5745(1) 0.0876(2) . 1. 0
O11 O2- 2 i 0.3384(2) 0.7033(1) 0.0242(2) . 1. 0
O12 O2- 2 i 0.2009(2) -.0750(1) 0.3111(2) . 1. 0
O13 O2- 2 i 0.3470(2) 0.7442(1) 0.5615(2) . 1. 0
O14 O2- 2 i 0.0268(1) 0.1434(1) 0.5453(2) . 1. 0
O15 O2- 2 i 0.5746(2) 0.0072(2) 0.3125(2) . 1. 0
O16 O2- 2 i 0.8849(2) 0.0422(1) 0.1833(2) . 1. 0
O17 O2- 2 i 0.0938(2) 0.6738(1) 0.2154(1) . 1. 0
O18 O2- 2 i 0.4004(2) 0.2514(1) 0.6728(2) . 1. 0
O19 O2- 2 i 0.7672(3) 0.0298(2) 0.0461(3) . 0.5 0
O20 O2- 2 i 0.5727(3) 0.1126(2) 0.0236(3) . 0.5 0
O21 O2- 2 i 0.5537(4) -.0813(3) 0.1851(4) . 0.5 0
O22 O2- 2 i 0.2162(2) 0.5614(1) 0.5743(2) . 1. 0
H1 H1+ 2 i 0.437(3) 0.463(2) 0.261(3) 1.7 1. 0
H2 H1+ 2 i 0.569(3) 0.494(2) 0.314(3) 1.7 1. 0
H3 H1+ 2 i 0.810(3) 0.539(2) 0.104(3) 1.9 1. 0
H4 H1+ 2 i 0.275(3) 0.388(2) -.025(3) 1.9 1. 0
H5 H1+ 2 i 0.643(3) 0.234(2) -.021(3) 2.1 1. 0
H6 H1+ 2 i 0.749(3) 0.288(2) 0.024(3) 2.1 1. 0
H7 H1+ 2 i 0.231(3) -.016(2) 0.304(3) 2.2 1. 0
H8 H1+ 2 i 0.113(3) -.065(2) 0.268(3) 2.2 1. 0
H9 H1+ 2 i 0.694(3) 0.303(2) 0.428(3) 2.2 1. 0
H10 H1+ 2 i 0.568(3) 0.269(2) 0.399(3) 2.2 1. 0
H11 H1+ 2 i 0.001(3) 0.200(2) 0.607(3) 1.8 1. 0
H12 H1+ 2 i 0.066(3) 0.170(2) 0.496(3) 1.8 1. 0
H13 H1+ 2 i 0.538(8) 0.033(6) 0.427(8) 4.3 1. 0
H14 H1+ 2 i 0.600(8) -.062(6) 0.292(8) 4.3 1. 0
H15 H1+ 2 i 0.472(8) 0.051(6) 0.325(8) 4.3 1. 0
H16 H1+ 2 i -.081(7) 0.097(5) 0.170(7) 3.2 1. 0
H17 H1+ 2 i 0.139(7) -.014(5) 0.880(7) 3.2 1. 0
H18 H1+ 2 i 0.084(3) 0.605(2) 0.200(3) 1.7 1. 0
H19 H1+ 2 i -.041(3) 0.302(2) 0.859(3) 1.7 1. 0
H20 H1+ 2 i 0.340(3) 0.247(2) 0.584(3) 2.3 1. 0
H21 H1+ 2 i 0.355(3) 0.299(2) 0.725(3) 2.3 1. 0
H22 H1+ 2 i 0.170(6) 0.036(5) -.014(6) 1.9 0.5 0
H23 H1+ 2 i 0.464(6) 0.185(5) 0.083(6) 2.2 0.5 0
H24 H1+ 2 i 0.666(6) 0.089(5) 0.093(6) 2.2 0.5 0
H25 H1+ 2 i 0.571(7) 0.856(5) 0.250(7) 3.7 0.5 0
H26 H1+ 2 i 0.192(3) 0.529(2) 0.498(3) 2.4 1. 0
H27 H1+ 2 i 0.850(3) 0.432(2) 0.370(3) 2.4 1. 0
loop_
_atom_site_aniso_label
_atom_site_aniso_type_symbol
_atom_site_aniso_B_11
_atom_site_aniso_B_22
_atom_site_aniso_B_33
_atom_site_aniso_B_12
_atom_site_aniso_B_13
_atom_site_aniso_B_23
V1 V5+ 0.70(1) 0.98(1) 0.71(1) -.293(8) 0.006(8) 0.364(8)
Na1 Na1+ 1.17(3) 1.77(4) 1.22(4) -.34(3) 0.24(3) 0.37(3)
Na2 Na1+ 1.36(2) 1.51(2) 1.67(3) -.27(2) 0.25(2) 0.52(2)
Na3 Na1+ 1.22(2) 1.43(2) 1.34(3) -.28(2) 0.18(2) 0.31(2)
Na4 Na1+ 1.91(6) 2.04(4) 3.01(7) -.09(5) 0.44(5) 1.17(5)
O1 O1- 1.25(4) 2.16(5) 1.36(5) -.84(3) -.01(4) 0.670(41)
O2 O1- 0.09(4) 2.26(5) 1.16(4) -.63(4) 0.38(4) 0.55(4)
O3 O1- 1.47(5) 1.26(4) 1.25(5) -.12(4) 0.35(4) 0.40(4)
O4 O1- 1.50(4) 1.52(4) 0.90(4) -.43(3) 0.21(4) 0.41(4)
O5 O1- 1.25(4) 1.94(5) 1.09(5) -.77(3) 0.12(4) 0.31(4)
O6 O1- 1.44(4) 1.65(5) 0.83(4) -.49(4) 0.21(4) 0.20(4)
O7 O1- 1.55(5) 1.40(4) 0.98(4) -.28(4) 0.06(4) 0.57(4)
O8 O1- 1.54(4) 1.41(4) 0.93(5) -.29(4) 0.26(4) 0.27(4)
O9 O1- 1.38(4) 1.40(4) 1.40(5) -.49(3) 0.11(4) 0.56(4)
O10 O1- 1.12(4) 2.21(5) 1.33(5) -.36(4) 0.13(4) 0.82(4)
O11 O2- 1.23(5) 2.04(5) 1.54(5) -.16(4) 0.05(4) 0.78(4)
O12 O2- 1.68(5) 1.42(4) 2.29(5) -.31(4) 0.71(4) 0.70(4)
O13 O2- 1.48(5) 1.69(5) 1.77(5) -.31(4) -.14(4) 0.76(4)
O14 O2- 1.58(4) 1.27(4) 1.50(5) -.39(3) 0.66(4) 0.22(4)
O15 O2- 2.15(5) 4.22(7) 3.70(8) -1.67(5) 0.27(5) 0.15(6)
O16 O2- 2.34(5) 4.10(6) 1.56(5) -1.75(4) -.28(4) 1.29(4)
O17 O2- 1.54(4) 1.46(4) 1.09(5) -.58(3) -.04(4) 0.42(4)
O18 O2- 1.41(5) 2.57(5) 1.32(5) -.74(4) 0.01(4) 0.11(4)
O19 O2- 1.11(9) 1.56(9) 1.26(9) -.40(7) -.11(8) 0.25(8)
O20 O2- 1.7(1) 1.74(9) 1.8(1) -.27(8) 0.28(8) 0.67(8)
O21 O2- 0.32(1) 0.31(1) 0.25(1) -.3(1) 0.6(1) 1.27(9)
O22 O2- 1.60(5) 2.75(5) 1.45(5) -1.11(4) 0.04(4) 0.42(4)
#End of TTdata_81292-ICSD