
#(C) 2019 by FIZ Karlsruhe - Leibniz Institute for Information Infrastructure.  All rights reserved.
data_81306-ICSD
_database_code_ICSD 81306
_audit_creation_date 1997-11-05
_chemical_name_systematic 'Sodium tetrathiotetracuprate'
_chemical_formula_structural 'Na (Cu4 S4)'
_chemical_formula_sum 'Cu4 Na1 S4'
_exptl_crystal_density_diffrn 4.39
_cell_measurement_temperature 296.
_publ_section_title

;
Na Cu4 S4, a simple new low-dimensional, metallic copper polychalcogenide,
structurally related to Cu S
;
loop_
_citation_id
_citation_journal_full
_citation_year
_citation_journal_volume
_citation_page_first
_citation_page_last
_citation_journal_id_ASTM
primary 'Journal of the American Chemical Society' 1996 118 693 694 JACSAT
loop_
_publ_author_name
'Zhang, X.'
'Kanatzidis, M.G.'
'Hogan, T.'
'Kannewurf, C.R.'
_cell_length_a 3.830(3)
_cell_length_b 3.830(1)
_cell_length_c 12.074(1)
_cell_angle_alpha 90.
_cell_angle_beta 90.
_cell_angle_gamma 120.
_cell_volume 153.38
_cell_formula_units_Z 1
_symmetry_space_group_name_H-M 'P -3 m 1'
_symmetry_Int_Tables_number 164
_refine_ls_R_factor_all 0.045
loop_
_symmetry_equiv_pos_site_id
_symmetry_equiv_pos_as_xyz
1 'x-y, -y, -z'
2 '-x, -x+y, -z'
3 'y, x, -z'
4 'x-y, x, -z'
5 'y, -x+y, -z'
6 '-x, -y, -z'
7 '-x+y, y, z'
8 'x, x-y, z'
9 '-y, -x, z'
10 '-x+y, -x, z'
11 '-y, x-y, z'
12 'x, y, z'
loop_
_atom_type_symbol
_atom_type_oxidation_number
Cu1+ 1
S1- -1.25
Na1+ 1
loop_
_atom_site_label
_atom_site_type_symbol
_atom_site_symmetry_multiplicity
_atom_site_Wyckoff_symbol
_atom_site_fract_x
_atom_site_fract_y
_atom_site_fract_z
_atom_site_B_iso_or_equiv
_atom_site_occupancy
_atom_site_attached_hydrogens
Cu1 Cu1+ 2 d 0.6667 0.3333 0.3108(3) . 1. 0
Cu2 Cu1+ 2 d 0.3333 0.6667 0.1477(2) . 1. 0
S1 S1- 2 d 0.3333 0.6667 0.3414(5) . 1. 0
S2 S1- 2 c 0 0 0.0863(4) . 1. 0
Na1 Na1+ 1 b 0 0 0.5 . 1. 0
loop_
_atom_site_aniso_label
_atom_site_aniso_type_symbol
_atom_site_aniso_U_11
_atom_site_aniso_U_22
_atom_site_aniso_U_33
_atom_site_aniso_U_12
_atom_site_aniso_U_13
_atom_site_aniso_U_23
Cu1 Cu1+ 0.012(1) 0.012(1) 0.022(2) 0.006(1) 0 0
Cu2 Cu1+ 0.016(1) 0.016(1) 0.009(2) 0.008(1) 0 0
S1 S1- 0.015(1) 0.015(1) 0.006(3) 0.008(1) 0 0
S2 S1- 0.008(1) 0.008(1) 0.010(3) 0.004(1) 0 0
Na1 Na1+ 0.046(5) 0.046(5) 0.006(7) 0.023(3) 0 0
#End of TTdata_81306-ICSD