
#(C) 2019 by FIZ Karlsruhe - Leibniz Institute for Information Infrastructure.  All rights reserved.
data_81383-ICSD
_database_code_ICSD 81383
_audit_creation_date 1997-11-05
_audit_update_record 2007-08-01
_chemical_name_systematic
'Potassium sodium tecto-alumotrisilicate (0.83/0.17/1)'
_chemical_formula_structural '(K0.831 Na0.169) (Al Si3 O8)'
_chemical_formula_sum 'Al1 K0.831 Na0.169 O8 Si3'
_chemical_name_structure_type Feldspar#-(MO,C12/m1)-KAlSi3O8
_chemical_name_mineral Sanidine
_exptl_crystal_density_diffrn 2.56
_cell_measurement_temperature 296.
_publ_section_title

;
High-temperature crystal structure of sanidine. Part II. The crystal structure
of sanidine at 935 C
;
loop_
_citation_id
_citation_journal_full
_citation_year
_citation_journal_volume
_citation_page_first
_citation_page_last
_citation_journal_id_ASTM
primary 'European Journal of Mineralogy' 1996 8 15 24 EJMIER
loop_
_publ_author_name
'Kimata, M.'
'Shimizu, M.'
'Saito, S.'
_cell_length_a 8.531(1)
_cell_length_b 13.007(1)
_cell_length_c 7.179(1)
_cell_angle_alpha 90.
_cell_angle_beta 116.00(2)
_cell_angle_gamma 90.
_cell_volume 715.98
_cell_formula_units_Z 4
_symmetry_space_group_name_H-M 'C 1 2/m 1'
_symmetry_Int_Tables_number 12
_refine_ls_R_factor_all 0.046
loop_
_symmetry_equiv_pos_site_id
_symmetry_equiv_pos_as_xyz
1 '-x, y, -z'
2 '-x, -y, -z'
3 'x, -y, z'
4 'x, y, z'
5 '-x+1/2, y+1/2, -z'
6 '-x+1/2, -y+1/2, -z'
7 'x+1/2, -y+1/2, z'
8 'x+1/2, y+1/2, z'
loop_
_atom_type_symbol
_atom_type_oxidation_number
K1+ 1
Na1+ 1
Si4+ 4
Al3+ 3
Si4+ 4
Al3+ 3
O2- -2
loop_
_atom_site_label
_atom_site_type_symbol
_atom_site_symmetry_multiplicity
_atom_site_Wyckoff_symbol
_atom_site_fract_x
_atom_site_fract_y
_atom_site_fract_z
_atom_site_B_iso_or_equiv
_atom_site_occupancy
_atom_site_attached_hydrogens
K1 K1+ 4 i 0.2807(2) 0 0.1363(3) . 0.831 0
Na1 Na1+ 4 i 0.2807(2) 0 0.1363(3) . 0.169 0
Si1 Si4+ 8 j 0.0085(1) 0.1819(1) 0.2235(2) . 0.72 0
Al1 Al3+ 8 j 0.0085(1) 0.1819(1) 0.2235(2) . 0.28 0
Si2 Si4+ 8 j 0.7023(1) 0.1169(1) 0.3436(2) . 0.78 0
Al2 Al3+ 8 j 0.7023(1) 0.1169(1) 0.3436(2) . 0.22 0
O1 O2- 4 g 0 0.1429(3) 0 . 1. 0
O2 O2- 4 i 0.6225(5) 0 0.2851(6) . 1. 0
O3 O2- 8 j 0.8262(4) 0.1406(2) 0.2262(5) . 1. 0
O4 O2- 8 j 0.0277(3) 0.3072(2) 0.2547(4) . 1. 0
O5 O2- 8 j 0.1844(3) 0.1252(2) 0.4049(4) . 1. 0
loop_
_atom_site_aniso_label
_atom_site_aniso_type_symbol
_atom_site_aniso_beta_11
_atom_site_aniso_beta_22
_atom_site_aniso_beta_33
_atom_site_aniso_beta_12
_atom_site_aniso_beta_13
_atom_site_aniso_beta_23
K1 K1+ 0.00970(26) 0.00715(14) 0.02055(48) 0 0.00458(30) 0
Na1 Na1+ 0.00970(26) 0.00715(14) 0.02055(48) 0 0.00458(30) 0
Si1 Si4+ 0.00645(17) 0.00204(6) 0.00522(23) -.00063(8) 0.00307(16) -.00015(9)
Al1 Al3+ 0.00645(17) 0.00204(6) 0.00522(23) -.00063(8) 0.00307(16) -.00015(9)
Si2 Si4+ 0.00607(17) 0.00163(6) 0.00620(24) -.00004(7) 0.00264(16) 0.00005(9)
Al2 Al3+ 0.00607(17) 0.00163(6) 0.00620(24) -.00004(7) 0.00264(16) 0.00005(9)
O1 O2- 0.01272(76) 0.00301(24) 0.00903(91) 0 0.00610(69) 0
O2 O2- 0.01086(72) 0.00183(22) 0.0131(10) 0 0.00367(74) 0
O3 O2- 0.00913(48) 0.00377(19) 0.01404(72) -.00079(25) 0.00629(49) 0.00042(31)
O4 O2- 0.00787(47) 0.00235(17) 0.01154(65) -.00028(21) 0.00389(47) -.00012(26)
O5 O2- 0.00923(49) 0.00296(17) 0.00790(65) 0.00022(23) 0.00228(47) 0.00020(26)
#End of TTdata_81383-ICSD