
#(C) 2019 by FIZ Karlsruhe - Leibniz Institute for Information Infrastructure.  All rights reserved.
data_81529-ICSD
_database_code_ICSD 81529
_audit_creation_date 1997-05-13
_audit_update_record 1997-11-10
_chemical_name_systematic 'Undecasodium rubidium tetrakis(trinitridotungstate)'
_chemical_formula_structural 'Na11 Rb (W N3)4'
_chemical_formula_sum 'N12 Na11 Rb1 W4'
_exptl_crystal_density_diffrn 4.64
_publ_section_title

;
Na2 K (W N3) and Na11 Rb ((W N3)4), two new alkali metal nitrido
tungstates(VI) with closely related structures
;
loop_
_citation_id
_citation_journal_full
_citation_year
_citation_journal_volume
_citation_page_first
_citation_page_last
_citation_journal_id_ASTM
primary 'Journal of Alloys and Compounds' 1996 233 61 68 JALCEU
loop_
_publ_author_name
'Niewa, R.'
'Jacobs, H.'
_cell_length_a 11.701(3)
_cell_length_b 12.502(2)
_cell_length_c 12.140(3)
_cell_angle_alpha 90.
_cell_angle_beta 90.
_cell_angle_gamma 90.
_cell_volume 1775.91
_cell_formula_units_Z 4
_symmetry_space_group_name_H-M 'P b c a'
_symmetry_Int_Tables_number 61
_refine_ls_R_factor_all 0.018
loop_
_symmetry_equiv_pos_site_id
_symmetry_equiv_pos_as_xyz
1 'x+1/2, y, -z+1/2'
2 'x, -y+1/2, z+1/2'
3 '-x+1/2, y+1/2, z'
4 '-x, -y, -z'
5 '-x+1/2, -y, z+1/2'
6 '-x, y+1/2, -z+1/2'
7 'x+1/2, -y+1/2, -z'
8 'x, y, z'
loop_
_atom_type_symbol
_atom_type_oxidation_number
W6+ 6
Rb1+ 1
Na1+ 1
N3- -3
loop_
_atom_site_label
_atom_site_type_symbol
_atom_site_symmetry_multiplicity
_atom_site_Wyckoff_symbol
_atom_site_fract_x
_atom_site_fract_y
_atom_site_fract_z
_atom_site_B_iso_or_equiv
_atom_site_occupancy
_atom_site_attached_hydrogens
W1 W6+ 8 c 0.23473(1) 0.00869(1) 0.11624(1) . 1. 0
W2 W6+ 8 c 0.49049(1) 0.13622(1) 0.26175(1) . 1. 0
Rb1 Rb1+ 4 b 0 0 0.5 . 1. 0
Na1 Na1+ 8 c 0.0512(1) 0.3801(2) 0.2413(3) . 1. 0
Na2 Na1+ 8 c 0.1175(2) 0.2314(2) 0.0213(2) . 1. 0
Na3 Na1+ 8 c 0.2420(2) 0.0937(2) 0.3751(2) . 1. 0
Na4 Na1+ 8 c 0.2800(3) 0.3271(2) 0.3091(2) . 1. 0
Na5 Na1+ 8 c 0.3688(2) 0.2355(2) 0.0549(2) . 1. 0
Na6 Na1+ 4 a 0 0 0 . 1. 0
N1 N3- 8 c 0.0666(4) 0.2117(4) 0.3424(4) . 1. 0
N2 N3- 8 c 0.0878(4) 0.0203(4) 0.1894(4) . 1. 0
N3 N3- 8 c 0.2279(4) 0.4295(3) 0.4803(4) . 1. 0
N4 N3- 8 c 0.2288(4) 0.3686(3) 0.1023(4) . 1. 0
N5 N3- 8 c 0.3549(4) 0.0737(4) 0.1992(4) . 1. 0
N6 N3- 8 c 0.4448(4) 0.2238(4) 0.3738(4) . 1. 0
loop_
_atom_site_aniso_label
_atom_site_aniso_type_symbol
_atom_site_aniso_U_11
_atom_site_aniso_U_22
_atom_site_aniso_U_33
_atom_site_aniso_U_12
_atom_site_aniso_U_13
_atom_site_aniso_U_23
W1 W6+ 0.00648(5) 0.00691(5) 0.00714(5) 0.00036(5) -.00057(5) -.00065(5)
W2 W6+ 0.00661(5) 0.00843(5) 0.00594(5) -.00032(5) -.00064(5) 0.00009(5)
Rb1 Rb1+ 0.0229(3) 0.0889(6) 0.0523(4) -.0201(4) -.0194(3) 0.0508(4)
Na1 Na1+ 0.026(1) 0.016(1) 0.048(2) -.0021(9) 0.012(1) 0.005(1)
Na2 Na1+ 0.0148(8) 0.0165(9) 0.0121(8) -.0001(7) 0.0005(7) 0.0006(8)
Na3 Na1+ 0.023(1) 0.0174(8) 0.0175(9) 0.044(8) 0.0036(9) 0.0027(8)
Na4 Na1+ 0.042(1) 0.036(1) 0.019(1) 0.018(1) -.001(1) 0.002(1)
Na5 Na1+ 0.0176(9) 0.024(1) 0.0135(8) 0.0030(9) 0.0005(8) 0.0040(9)
Na6 Na1+ 0.025(2) 0.094(4) 0.025(2) -.001(3) -.013(1) -.010(2)
N1 N3- 0.018(2) 0.015(2) 0.012(2) 0.002(1) -.002(1) -.003(1)
N2 N3- 0.010(1) 0.017(2) 0.019(2) 0.000(1) 0.004(1) -.005(2)
N3 N3- 0.021(2) 0.013(1) 0.013(1) -.004(2) 0.000(2) -.001(1)
N4 N3- 0.019(2) 0.012(1) 0.018(2) -.001(1) -.002(1) 0.000(1)
N5 N3- 0.011(1) 0.017(2) 0.014(2) -.003(1) -.004(1) -.003(1)
N6 N3- 0.012(2) 0.026(2) 0.014(2) 0.002(1) 0.000(1) -.009(2)
#End of TTdata_81529-ICSD