
#(C) 2019 by FIZ Karlsruhe - Leibniz Institute for Information Infrastructure.  All rights reserved.
data_81678-ICSD
_database_code_ICSD 81678
_audit_creation_date 1997-05-13
_chemical_name_systematic 'Disodium copper(I) trithioantimonate'
_chemical_formula_structural 'Na2 Cu (Sb S3)'
_chemical_formula_sum 'Cu1 Na2 S3 Sb1'
_exptl_crystal_density_diffrn 3.48
_publ_section_title

;
Synthesis, structure, and characterization of Na2 Cu Sb S3, a new sulfosalt
derivative from supercritical ethylenediamine
;
loop_
_citation_id
_citation_journal_full
_citation_year
_citation_journal_volume
_citation_page_first
_citation_page_last
_citation_journal_id_ASTM
primary 'European Journal of Solid State and Inorganic Chemistry' 1996 33 765
782 EJSCE5
loop_
_publ_author_name
'Jerome, J.E.'
'Schimek, G.L.'
'Drake, G.W.'
'Kolis, J.W.'
_cell_length_a 5.847(2)
_cell_length_b 17.146(5)
_cell_length_c 6.776(2)
_cell_angle_alpha 90.
_cell_angle_beta 113.21(2)
_cell_angle_gamma 90.
_cell_volume 624.33
_cell_formula_units_Z 4
_symmetry_space_group_name_H-M 'P 1 21/n 1'
_symmetry_Int_Tables_number 14
_refine_ls_R_factor_all 0.026
loop_
_symmetry_equiv_pos_site_id
_symmetry_equiv_pos_as_xyz
1 '-x+1/2, y+1/2, -z+1/2'
2 '-x, -y, -z'
3 'x+1/2, -y+1/2, z+1/2'
4 'x, y, z'
loop_
_atom_type_symbol
_atom_type_oxidation_number
Sb3+ 3
Cu1+ 1
S2- -2
Na1+ 1
loop_
_atom_site_label
_atom_site_type_symbol
_atom_site_symmetry_multiplicity
_atom_site_Wyckoff_symbol
_atom_site_fract_x
_atom_site_fract_y
_atom_site_fract_z
_atom_site_B_iso_or_equiv
_atom_site_occupancy
_atom_site_attached_hydrogens
Sb1 Sb3+ 4 e 0.2220(1) 0.8268(1) 0.4806(1) 0.012(1) 1. 0
Cu1 Cu1+ 4 e 0.0172(2) 0.7878(1) 0.8997(2) 0.024(1) 1. 0
S1 S2- 4 e 0.8339(3) 0.8056(1) 0.5355(3) 0.015(1) 1. 0
S2 S2- 4 e 0.0543(4) 0.8881(1) 0.1311(3) 0.016(1) 1. 0
S3 S2- 4 e 0.3523(3) 0.9419(1) 0.6947(3) 0.016(1) 1. 0
Na1 Na1+ 4 e 0.1558(6) 0.0384(2) 0.3082(5) 0.022(1) 1. 0
Na2 Na1+ 4 e 0.0541(6) 0.6134(2) 0.6179(5) 0.031(1) 1. 0
#End of TTdata_81678-ICSD