
#(C) 2019 by FIZ Karlsruhe - Leibniz Institute for Information Infrastructure.  All rights reserved.
data_81693-ICSD
_database_code_ICSD 81693
_audit_creation_date 1997-05-13
_audit_update_record 2008-02-01
_chemical_name_systematic
'Sodium zirconium disilicophosphate(V) (3.24/1.96/2/1)'
_chemical_formula_structural 'Na3.24 Zr1.956 (Si2 P O12)'
_chemical_formula_sum 'Na3.24 O12 P1 Si2 Zr1.956'
_chemical_name_structure_type 'Nasicon low'
_exptl_crystal_density_diffrn 3.27
_publ_section_title
'Crystal structure of NASICON by Rietveld structural refinement'
loop_
_citation_id
_citation_journal_full
_citation_year
_citation_journal_volume
_citation_page_first
_citation_page_last
_citation_journal_id_ASTM
primary 'Han'guk Chaelyo Hakhoechi' 1996 6 504 514 HCHAEU
loop_
_publ_author_name
'Kang, E.-T.'
'Cheong, H.'
'Choi, J.-S.'
'Choi, J.-B.'
_cell_length_a 15.6240(9)
_cell_length_b 9.0402(6)
_cell_length_c 9.2040(6)
_cell_angle_alpha 90.
_cell_angle_beta 123.691(3)
_cell_angle_gamma 90.
_cell_volume 1081.66
_cell_formula_units_Z 4
_symmetry_space_group_name_H-M 'C 1 2/c 1'
_symmetry_Int_Tables_number 15
_refine_ls_R_factor_all 0.046
loop_
_symmetry_equiv_pos_site_id
_symmetry_equiv_pos_as_xyz
1 'x, -y, z+1/2'
2 '-x, -y, -z'
3 '-x, y, -z+1/2'
4 'x, y, z'
5 'x+1/2, -y+1/2, z+1/2'
6 '-x+1/2, -y+1/2, -z'
7 '-x+1/2, y+1/2, -z+1/2'
8 'x+1/2, y+1/2, z'
loop_
_atom_type_symbol
_atom_type_oxidation_number
Zr4+ 4
Si4+ 4
P5+ 5
Si4+ 4
P5+ 5
O2- -2
Na1+ 1
loop_
_atom_site_label
_atom_site_type_symbol
_atom_site_symmetry_multiplicity
_atom_site_Wyckoff_symbol
_atom_site_fract_x
_atom_site_fract_y
_atom_site_fract_z
_atom_site_B_iso_or_equiv
_atom_site_occupancy
_atom_site_attached_hydrogens
Zr1 Zr4+ 8 f 0.102(1) 0.251(1) 0.057(1) 3.08 0.978(2) 0
Si1 Si4+ 8 f 0.357(1) 0.108(2) 0.261(1) 2.505 0.667 0
P1 P5+ 8 f 0.357(1) 0.108(2) 0.261(1) 2.505 0.333 0
Si2 Si4+ 4 e 0 0.039(3) 0.25 4.566 0.667 0
P2 P5+ 4 e 0 0.039(3) 0.25 4.566 0.333 0
O1 O2- 8 f 0.137(2) 0.438(3) 0.220(3) 8.304 1. 0
O2 O2- 8 f 0.438(1) 0.454(2) 0.090(2) 1.34 1. 0
O3 O2- 8 f 0.254(2) 0.185(3) 0.206 3.948 1. 0
O4 O2- 8 f 0.383 0.135 0.112 2.739 1. 0
O5 O2- 8 f 0.449 0.175 0.444 5.228 1. 0
O6 O2- 8 f 0.081 0.146 0.237 2.252 1. 0
Na1 Na1+ 4 d 0.25 0.25 0.5 20.92 0.580(4) 0
Na2 Na1+ 4 e 0.5 0.894(3) 0.25 4.655 1. 0
Na3 Na1+ 8 f 0.827(2) 0.113(4) 0.882(4) 19.94 0.830(3) 0
#End of TTdata_81693-ICSD