
#(C) 2019 by FIZ Karlsruhe - Leibniz Institute for Information Infrastructure.  All rights reserved.
data_81764-ICSD
_database_code_ICSD 81764
_audit_creation_date 1997-05-13
_chemical_name_systematic 'Sodium potassium tungsten nitride (2/13/7/19)'
_chemical_formula_structural 'Na2 K13 (W7 N19)'
_chemical_formula_sum 'K13 N19 Na2 W7'
_exptl_crystal_density_diffrn 4.38
_publ_section_title

;
Na2 K13 (W7 N19) the first nitrido tungstate(VI) with layers of corner-sharing
nitrogen tetrahedra around tungsten
;
loop_
_citation_id
_citation_journal_full
_citation_year
_citation_journal_volume
_citation_page_first
_citation_page_last
_citation_journal_id_ASTM
primary 'Journal of Alloys and Compounds' 1996 236 13 18 JALCEU
loop_
_publ_author_name
'Niewa, R.'
'Jacobs, H.'
_cell_length_a 6.726(3)
_cell_length_b 12.505(4)
_cell_length_c 19.3469(30)
_cell_angle_alpha 90.63(2)
_cell_angle_beta 94.21(2)
_cell_angle_gamma 100.27(3)
_cell_volume 1596.37
_cell_formula_units_Z 2
_symmetry_space_group_name_H-M 'P -1'
_symmetry_Int_Tables_number 2
_refine_ls_R_factor_all 0.046
loop_
_symmetry_equiv_pos_site_id
_symmetry_equiv_pos_as_xyz
1 '-x, -y, -z'
2 'x, y, z'
loop_
_atom_type_symbol
_atom_type_oxidation_number
W6+ 6
K1+ 1
Na1+ 1
N3- -3
loop_
_atom_site_label
_atom_site_type_symbol
_atom_site_symmetry_multiplicity
_atom_site_Wyckoff_symbol
_atom_site_fract_x
_atom_site_fract_y
_atom_site_fract_z
_atom_site_B_iso_or_equiv
_atom_site_occupancy
_atom_site_attached_hydrogens
W1 W6+ 2 i 0.41796(8) 0.73442(4) 0.87706(2) . 1. 0
W2 W6+ 2 i 0.14058(7) 0.59237(4) 0.31096(2) . 1. 0
W3 W6+ 2 i 0.25443(8) 0.33934(4) 0.39247(2) . 1. 0
W4 W6+ 2 i 0.00951(7) 0.22388(4) 0.55053(2) . 1. 0
W5 W6+ 2 i 0.13454(8) 0.45191(4) 0.85805(3) . 1. 0
W6 W6+ 2 i 0.33873(8) 0.11868(4) 0.27436(2) . 1. 0
W7 W6+ 2 i 0.31786(8) 0.20994(4) 0.94172(3) . 1. 0
K1 K1+ 2 i 0.4844(6) 0.3760(3) 0.5621(2) . 1. 0
K2 K1+ 2 i 0.3883(5) 0.8672(3) 0.3487(2) . 1. 0
K3 K1+ 2 i 0.2711(6) 0.9793(3) 0.8040(2) . 1. 0
K4 K1+ 2 i 0.0657(5) 0.9632(3) 0.6097(2) . 1. 0
K5 K1+ 2 i 0.2245(5) 0.2308(3) 0.7259(2) . 1. 0
K6 K1+ 2 i 0.1561(6) 0.8255(3) 0.1696(2) . 1. 0
K7 K1+ 2 i 0.1235(5) 0.0917(3) 0.1002(2) . 1. 0
K8 K1+ 2 i 0.2822(7) 0.9215(4) 0.9980(2) . 1. 0
K9 K1+ 2 i 0.4005(5) 0.1064(3) 0.4699(2) . 1. 0
K10 K1+ 2 i 0.4080(7) 0.5371(4) 0.7162(2) . 1. 0
K11 K1+ 2 i 0.0321(9) 0.6576(4) 0.9865(2) . 1. 0
K12 K1+ 2 i 0.0979(6) 0.3331(3) 0.2052(2) . 1. 0
K13 K1+ 2 i 0.2475(7) 0.7405(4) 0.6196(3) . 1. 0
Na1 Na1+ 2 i 0.397(1) 0.6217(6) 0.1557(4) 2.2(1) 1. 0
Na2 Na1+ 1 g 0 0.5 0.5 2.6(2) 1. 0
Na3 Na1+ 1 e 0.5 0.5 0 3.2(2) 1. 0
N1 N3- 2 i 0.200(2) 0.796(1) 0.8807(6) . 1. 0
N2 N3- 2 i 0.076(2) 0.678(1) 0.3816(6) . 1. 0
N3 N3- 2 i 0.448(2) 0.927(1) 0.6815(8) . 1. 0
N4 N3- 2 i 0.427(2) 0.200(1) 0.1924(6) . 1. 0
N5 N3- 2 i 0.334(2) 0.581(1) 0.8591(8) . 1. 0
N6 N3- 2 i 0.491(2) 0.611(1) 0.5803(7) . 1. 0
N7 N3- 2 i 0.196(2) 0.887(1) 0.4743(7) . 1. 0
N8 N3- 2 i 0.105(2) 0.302(1) 0.4700(6) . 1. 0
N9 N3- 2 i 0.088(2) 0.111(1) 0.9434(8) . 1. 0
N10 N3- 2 i 0.221(2) 0.173(1) 0.5900(6) . 1. 0
N11 N3- 2 i 0.236(2) 0.2181(9) 0.3350(7) . 1. 0
N12 N3- 2 i 0.081(2) 0.525(1) 0.0994(7) . 1. 0
N13 N3- 2 i 0.430(2) 0.240(1) 0.0364(6) . 1. 0
N14 N3- 2 i 0.255(3) 0.345(1) 0.9024(8) . 1. 0
N15 N3- 2 i 0.143(2) 0.002(1) 0.2526(7) . 1. 0
N16 N3- 2 i 0.060(2) 0.409(1) 0.7651(6) . 1. 0
N17 N3- 2 i 0.144(2) 0.449(1) 0.3418(7) . 1. 0
N18 N3- 2 i 0.382(2) 0.651(1) 0.2830(7) . 1. 0
N19 N3- 2 i 0.493(3) 0.160(2) 0.8901(8) . 1. 0
loop_
_atom_site_aniso_label
_atom_site_aniso_type_symbol
_atom_site_aniso_U_11
_atom_site_aniso_U_22
_atom_site_aniso_U_33
_atom_site_aniso_U_12
_atom_site_aniso_U_13
_atom_site_aniso_U_23
W1 W6+ 0.0153(2) 0.0125(2) 0.0090(2) 0.0023(2) 0.0017(1) 0.0022(1)
W2 W6+ 0.0123(2) 0.0119(2) 0.0083(2) 0.0033(1) 0.0020(1) 0.0001(1)
W3 W6+ 0.0178(2) 0.0104(2) 0.0099(2) 0.0043(1) 0.0058(1) 0.0019(1)
W4 W6+ 0.0135(2) 0.0113(2) 0.0085(2) 0.0028(1) 0.0034(1) 0.0004(1)
W5 W6+ 0.0206(2) 0.0129(2) 0.0097(2) 0.0053(2) 0.0008(2) 0.0017(1)
W6 W6+ 0.0151(2) 0.0138(2) 0.0095(2) 0.0047(1) 0.0030(1) 0.0026(1)
W7 W6+ 0.0166(2) 0.0128(2) 0.0104(2) 0.0039(2) -.0002(2) 0.0005(1)
K1 K1+ 0.037(2) 0.030(2) 0.020(1) -.010(1) -.006(1) 0.006(1)
K2 K1+ 0.019(1) 0.018(1) 0.022(1) 0.0025(9) 0.005(1) 0.001(1)
K3 K1+ 0.029(1) 0.029(1) 0.032(1) 0.009(1) 0.010(1) 0.012(1)
K4 K1+ 0.021(1) 0.019(1) 0.028(1) 0.001(1) 0.002(1) 0.003(1)
K5 K1+ 0.026(1) 0.034(2) 0.025(1) 0.009(1) 0.003(1) -.001(1)
K6 K1+ 0.030(2) 0.033(2) 0.026(1) 0.003(1) 0.004(1) -.003(1)
K7 K1+ 0.026(1) 0.023(1) 0.031(1) -.001(1) 0.009(1) -.002(1)
K8 K1+ 0.043(2) 0.040(2) 0.033(2) 0.018(1) 0.000(2) -.008(1)
K9 K1+ 0.027(1) 0.029(1) 0.025(1) 0.010(1) -.001(1) -.001(1)
K10 K1+ 0.043(2) 0.057(2) 0.038(2) 0.009(2) 0.020(1) 0.021(2)
K11 K1+ 0.111(3) 0.041(2) 0.046(2) 0.036(2) 0.054(2) 0.025(1)
K12 K1+ 0.043(2) 0.031(1) 0.028(1) 0.017(1) -.013(1) -.007(1)
K13 K1+ 0.032(2) 0.041(2) 0.075(3) 0.014(2) -.011(2) -.019(2)
N1 N3- 0.025(5) 0.022(5) 0.016(4) 0.007(4) 0.000(4) 0.005(4)
N2 N3- 0.024(5) 0.016(4) 0.021(5) 0.005(4) 0.006(4) -.005(4)
N3 N3- 0.017(5) 0.028(6) 0.035(6) 0.005(4) -.001(5) 0.011(5)
N4 N3- 0.026(5) 0.030(5) 0.016(4) 0.007(4) 0.009(4) 0.014(4)
N5 N3- 0.032(7) 0.020(5) 0.033(6) -.003(5) -.009(6) 0.000(5)
N6 N3- 0.026(5) 0.041(7) 0.017(4) 0.004(5) 0.013(4) 0.002(5)
N7 N3- 0.025(5) 0.013(4) 0.023(5) 0.003(4) 0.005(4) -.001(4)
N8 N3- 0.029(5) 0.024(5) 0.016(4) 0.011(4) 0.013(4) 0.006(4)
N9 N3- 0.027(6) 0.027(6) 0.030(6) -.002(5) 0.001(5) 0.001(5)
N10 N3- 0.016(4) 0.019(4) 0.016(4) 0.005(4) 0.002(4) -.002(4)
N11 N3- 0.049(7) 0.009(4) 0.027(5) 0.009(4) 0.013(5) -.002(4)
N12 N3- 0.043(6) 0.039(7) 0.027(5) 0.021(5) 0.022(4) 0.001(5)
N13 N3- 0.038(6) 0.021(5) 0.010(4) 0.005(5) -.005(4) -.001(4)
N14 N3- 0.053(8) 0.029(6) 0.023(6) 0.013(6) -.011(6) 0.007(5)
N15 N3- 0.031(6) 0.025(5) 0.020(5) 0.010(4) -.002(5) -.007(4)
N16 N3- 0.029(5) 0.029(5) 0.011(4) 0.012(4) -.007(4) 0.001(4)
N17 N3- 0.049(7) 0.024(5) 0.016(5) 0.010(5) 0.010(5) 0.007(4)
N18 N3- 0.019(5) 0.025(6) 0.029(6) -.005(5) 0.008(4) -.004(5)
N19 N3- 0.041(7) 0.054(9) 0.026(9) 0.013(6) 0.008(5) -.016(6)
#End of TTdata_81764-ICSD