
#(C) 2019 by FIZ Karlsruhe - Leibniz Institute for Information Infrastructure.  All rights reserved.
data_81847-ICSD
_database_code_ICSD 81847
_audit_creation_date 1999-11-30
_audit_update_record 2008-02-01
_chemical_name_systematic 'Sodium barium calcium nitride (21/14/1/6)'
_chemical_formula_structural 'Na21 Ba14 Ca N6'
_chemical_formula_sum 'Ba14 Ca1 N6 Na21'
_exptl_crystal_density_diffrn 2.45
_publ_section_title 'Subnitrides with the new cluster Ba14 Ca N6'
loop_
_citation_id
_citation_journal_full
_citation_year
_citation_journal_volume
_citation_page_first
_citation_page_last
_citation_journal_id_ASTM
primary 'Journal of the Chemical Society, Faraday Transactions' 1996 92 2117
2123 JCFTEV
loop_
_publ_author_name
'Simon, A.'
'Steinbrenner, U.'
_cell_length_a 21.500(4)
_cell_length_b 12.664(3)
_cell_length_c 16.295(3)
_cell_angle_alpha 90.
_cell_angle_beta 129.48(3)
_cell_angle_gamma 90.
_cell_volume 3424.48
_cell_formula_units_Z 2
_symmetry_space_group_name_H-M 'C 1 2/m 1'
_symmetry_Int_Tables_number 12
_refine_ls_R_factor_all 0.035
loop_
_symmetry_equiv_pos_site_id
_symmetry_equiv_pos_as_xyz
1 '-x, y, -z'
2 '-x, -y, -z'
3 'x, -y, z'
4 'x, y, z'
5 '-x+1/2, y+1/2, -z'
6 '-x+1/2, -y+1/2, -z'
7 'x+1/2, -y+1/2, z'
8 'x+1/2, y+1/2, z'
loop_
_atom_type_symbol
_atom_type_oxidation_number
Ba0+ 0
Ca0+ 0
Na0+ 0
N0+ 0
loop_
_atom_site_label
_atom_site_type_symbol
_atom_site_symmetry_multiplicity
_atom_site_Wyckoff_symbol
_atom_site_fract_x
_atom_site_fract_y
_atom_site_fract_z
_atom_site_B_iso_or_equiv
_atom_site_occupancy
_atom_site_attached_hydrogens
Ba1 Ba0+ 8 j 0.38486(1) 0.21041(1) 0.40731(1) . 1. 0
Ba2 Ba0+ 4 i 0.39954(2) 0 0.58806(2) . 1. 0
Ba3 Ba0+ 4 i 0.19596(2) 0 0.27161(2) . 1. 0
Ba4 Ba0+ 4 i 0.37389(2) 0 0.23603(2) . 1. 0
Ba5 Ba0+ 8 j 0.00865(1) 0.21603(2) 0.72475(2) . 1. 0
Ca1 Ca0+ 2 d 0.5 0 0.5 . 1. 0
Na1 Na0+ 4 f 0.25 0.25 0.5 . 1. 0
Na2 Na0+ 2 c 0.5 0.5 0.5 . 1. 0
Na3 Na0+ 4 i 0.1756(2) 0 0.5219(2) . 1. 0
Na4 Na0+ 8 j 0.3516(1) 0.1492(2) 0.7796(2) . 1. 0
Na5 Na0+ 4 i 0.4461(2) 0 0.0510(2) . 1. 0
Na6 Na0+ 8 j 0.2976(1) 0.2310(2) 0.9438(2) . 1. 0
Na7 Na0+ 4 i 0.1941(2) 0 0.7894(3) . 1. 0
Na8 Na0+ 4 g 0.5 0.3209(3) 0 . 1. 0
Na9 Na0+ 4 i 0.3693(3) 0.5 0.0333(3) . 1. 0
N1 N0+ 4 i 0.3450(1) 0 0.3794(3) . 1. 0
N2 N0+ 8 j 0.4931(2) 0.1433(2) 0.3831(2) . 1. 0
loop_
_atom_site_aniso_label
_atom_site_aniso_type_symbol
_atom_site_aniso_U_11
_atom_site_aniso_U_22
_atom_site_aniso_U_33
_atom_site_aniso_U_12
_atom_site_aniso_U_13
_atom_site_aniso_U_23
Ba1 Ba0+ 0.0306(1) 0.0259(1) 0.0334(1) 0.0043(1) 0.0207(1) 0.0027(1)
Ba2 Ba0+ 0.0300(1) 0.0309(1) 0.0319(2) 0 0.0225(1) 0
Ba3 Ba0+ 0.0249(1) 0.0447(2) 0.0349(2) 0 0.0151(1) 0
Ba4 Ba0+ 0.0314(1) 0.0374(2) 0.0247(1) 0 0.0163(1) 0
Ba5 Ba0+ 0.0443(1) 0.0377(1) 0.0381(1) 0.0034(1) 0.0275(1) 0.0120(1)
Ca1 Ca0+ 0.025(1) 0.024(1) 0.024(1) 0 0.016(1) 0
Na1 Na0+ 0.059(1) 0.054(1) 0.076(1) 0.013(1) 0.051(1) 0.009(1)
Na2 Na0+ 0.073(2) 0.036(2) 0.112(3) 0 0.063(2) 0
Na3 Na0+ 0.064(2) 0.051(1) 0.088(2) 0 0.054(2) 0
Na4 Na0+ 0.078(1) 0.074(1) 0.071(1) 0.007(1) 0.051(1) 0.002(1)
Na5 Na0+ 0.074(2) 0.109(2) 0.063(2) 0 0.048(2) 0
Na6 Na0+ 0.085(1) 0.093(2) 0.065(1) 0.009(1) 0.038(1) -.008(1)
Na7 Na0+ 0.077(2) 0.059(2) 0.135(3) 0 0.061(2) 0
Na8 Na0+ 0.076(2) 0.119(3) 0.064(2) 0 0.029(2) 0
Na9 Na0+ 0.151(3) 0.074(2) 0.055(2) 0 0.030(2) 0
N1 N0+ 0.025(2) 0.030(2) 0.027(2) 0 0.013(2) 0
N2 N0+ 0.030(1) 0.029(1) 0.029(1) 0.001 0.020(1) 0.003(1)
#End of TTdata_81847-ICSD