
#(C) 2019 by FIZ Karlsruhe - Leibniz Institute for Information Infrastructure.  All rights reserved.
data_82004-ICSD
_database_code_ICSD 82004
_audit_creation_date 1999-11-30
_chemical_name_systematic 'Sodium neodymium titanate'
_chemical_formula_structural 'Na Nd (Ti O4)'
_chemical_formula_sum 'Na1 Nd1 O4 Ti1'
_chemical_name_structure_type (La,K)2CuO4
_exptl_crystal_density_diffrn 5.14
_publ_section_title

;
Structure and ionic conductivity of Na Ln Ti O4; comparison with those of Na2
Ln2 Ti3 O10 (Ln = La, Nd, Sm, and Gd)
;
loop_
_citation_id
_citation_journal_full
_citation_year
_citation_journal_volume
_citation_page_first
_citation_page_last
_citation_journal_id_ASTM
primary 'Journal of Solid State Chemistry' 1996 121 430 436 JSSCBI
loop_
_publ_author_name
'Byeon, S.H.'
'Park, K.'
'Itoh, M.'
_cell_length_a 3.75055(4)
_cell_length_b 3.75055(4)
_cell_length_c 12.8242(1)
_cell_angle_alpha 90.
_cell_angle_beta 90.
_cell_angle_gamma 90.
_cell_volume 180.39
_cell_formula_units_Z 2
_symmetry_space_group_name_H-M 'P 4/n m m Z'
_symmetry_Int_Tables_number 129
_refine_ls_R_factor_all 0.024
loop_
_symmetry_equiv_pos_site_id
_symmetry_equiv_pos_as_xyz
1 'y+1/2, x+1/2, -z'
2 '-y, x+1/2, -z'
3 'y+1/2, -x, -z'
4 '-y, -x, -z'
5 'x+1/2, y+1/2, -z'
6 '-x, y+1/2, -z'
7 'x+1/2, -y, -z'
8 '-x, -y, -z'
9 '-y+1/2, -x+1/2, z'
10 'y, -x+1/2, z'
11 '-y+1/2, x, z'
12 'y, x, z'
13 '-x+1/2, -y+1/2, z'
14 'x, -y+1/2, z'
15 '-x+1/2, y, z'
16 'x, y, z'
loop_
_atom_type_symbol
_atom_type_oxidation_number
Nd3+ 3
Na1+ 1
Ti4+ 4
O2- -2
loop_
_atom_site_label
_atom_site_type_symbol
_atom_site_symmetry_multiplicity
_atom_site_Wyckoff_symbol
_atom_site_fract_x
_atom_site_fract_y
_atom_site_fract_z
_atom_site_B_iso_or_equiv
_atom_site_occupancy
_atom_site_attached_hydrogens
Nd1 Nd3+ 2 c 0.25 0.25 0.8914(2) 0.42(6) 1. 0
Na1 Na1+ 2 c 0.25 0.25 0.586(1) 1.3(5) 1. 0
Ti1 Ti4+ 2 c 0.75 0.75 0.7296(6) 0.32(5) 1. 0
O1 O2- 4 f 0.75 0.25 0.724(1) 0.8(4) 1. 0
O2 O2- 2 c 0.25 0.25 0.407(3) 0.6(5) 1. 0
O3 O2- 2 c 0.25 0.25 0.072(2) 0.6(6) 1. 0
#End of TTdata_82004-ICSD