
#(C) 2019 by FIZ Karlsruhe - Leibniz Institute for Information Infrastructure.  All rights reserved.
data_82153-ICSD
_database_code_ICSD 82153
_audit_creation_date 1999-11-30
_chemical_name_systematic 'Disodium tecto-titanosilicate - LT'
_chemical_formula_structural 'Na2 (Ti Si O5)'
_chemical_formula_sum 'Na2 O5 Si1 Ti1'
_exptl_crystal_density_diffrn 3.08
_publ_section_title

;
Crystal structure of orthorhombic LT-Na2 Ti Si O5 and its relation to the
tetragonal HT-form
;
loop_
_citation_id
_citation_journal_full
_citation_year
_citation_journal_volume
_citation_page_first
_citation_page_last
_citation_journal_id_ASTM
primary 'Journal of Solid State Chemistry' 1996 123 324 330 JSSCBI
loop_
_publ_author_name
'Ziadi, A.'
'Hillebrecht, H.'
'Thiele, G.'
'Elouadi, B.'
_cell_length_a 9.1814(3)
_cell_length_b 4.8075(2)
_cell_length_c 9.8604(4)
_cell_angle_alpha 90.
_cell_angle_beta 90.
_cell_angle_gamma 90.
_cell_volume 435.23
_cell_formula_units_Z 4
_symmetry_space_group_name_H-M 'P m c 21'
_symmetry_Int_Tables_number 26
_refine_ls_R_factor_all 0.052
loop_
_symmetry_equiv_pos_site_id
_symmetry_equiv_pos_as_xyz
1 'x, -y, z+1/2'
2 '-x, -y, z+1/2'
3 '-x, y, z'
4 'x, y, z'
loop_
_atom_type_symbol
_atom_type_oxidation_number
Ti4+ 4
O2- -2
Ti4+ 4
O2- -2
Si4+ 4
Na1+ 1
loop_
_atom_site_label
_atom_site_type_symbol
_atom_site_symmetry_multiplicity
_atom_site_Wyckoff_symbol
_atom_site_fract_x
_atom_site_fract_y
_atom_site_fract_z
_atom_site_B_iso_or_equiv
_atom_site_occupancy
_atom_site_attached_hydrogens
Ti1 Ti4+ 2 b 0.5 0.4655(3) -.0021(3) 0.0056(4) 1. 0
O1 O2- 2 b 0.5 0.8201(13) -.002(1) 0.0113(12) 1. 0
O2 O2- 4 c 0.3519(5) 0.3596(10) 0.1334(6) 0.0067(9) 1. 0
O3 O2- 4 c 0.3543(5) 0.6452(11) 0.3643(6) 0.0095(10) 1. 0
Ti2 Ti4+ 2 a 0 0.0259(3) 0.7835(3) 0.0072(4) 1. 0
O4 O2- 2 a 0 0.850(16) 0.4454(8) 0.0127(14) 1. 0
O5 O2- 4 c 0.1472(5) 0.7498(10) 0.1836(6) 0.0077(9) 1. 0
O6 O2- 4 c 0.1491(5) 0.2598(10) 0.3152(6) 0.0088(10) 1. 0
Si1 Si4+ 4 c 0.2500(2) 0.5043(4) 0.25 0.0036(4) 1. 0
Na1 Na1+ 2 b 0.5 0.0068(12) 0.2544(6) 0.0146(10) 1. 0
Na2 Na1+ 4 c 0.2510(4) 0.0036(6) 0.0061(4) 0.0093(6) 1. 0
Na3 Na1+ 2 a 0 0.4039(9) 0.5040(6) 0.0117(8) 1. 0
#End of TTdata_82153-ICSD