
#(C) 2019 by FIZ Karlsruhe - Leibniz Institute for Information Infrastructure.  All rights reserved.
data_82186-ICSD
_database_code_ICSD 82186
_audit_creation_date 1999-11-30
_chemical_name_systematic
'Sodium molybdenum tungsten oxide phosphate (1.36/0.15/1.85/5/1)'
_chemical_formula_structural 'Na1.36 (((Mo0.15 W1.85) O5) (P O4))'
_chemical_formula_sum 'Mo0.15 Na1.36 O9 P1 W1.85'
_exptl_crystal_density_diffrn 5.41
_cell_measurement_temperature 294.
_publ_section_title

;
A mixed valent molybdenotungsten phosphate Na1-x (Mo, W)2 O5 P O4 closely
related to the phosphate tungsten bronzes
;
loop_
_citation_id
_citation_journal_full
_citation_year
_citation_journal_volume
_citation_page_first
_citation_page_last
_citation_journal_id_ASTM
primary 'Journal of Solid State Chemistry' 1996 124 224 229 JSSCBI
loop_
_publ_author_name
'Leclaire, A.'
'Borel, M.M.'
'Chardon, J.'
'Raveau, B.'
_cell_length_a 4.853(1)
_cell_length_b 8.516(1)
_cell_length_c 16.646(1)
_cell_angle_alpha 90.
_cell_angle_beta 90.
_cell_angle_gamma 90.
_cell_volume 687.95
_cell_formula_units_Z 4
_symmetry_space_group_name_H-M 'P 21 21 21'
_symmetry_Int_Tables_number 19
_refine_ls_R_factor_all 0.036
loop_
_symmetry_equiv_pos_site_id
_symmetry_equiv_pos_as_xyz
1 '-x, y+1/2, -z+1/2'
2 'x+1/2, -y+1/2, -z'
3 '-x+1/2, -y, z+1/2'
4 'x, y, z'
loop_
_atom_type_symbol
_atom_type_oxidation_number
W5+ 5.753
Mo5+ 5
W6+ 6
P5+ 5
Na1+ 1
O2- -2
loop_
_atom_site_label
_atom_site_type_symbol
_atom_site_symmetry_multiplicity
_atom_site_Wyckoff_symbol
_atom_site_fract_x
_atom_site_fract_y
_atom_site_fract_z
_atom_site_B_iso_or_equiv
_atom_site_occupancy
_atom_site_attached_hydrogens
W1 W5+ 4 a 0.1271(2) 0.3834(1) 0.04377(4) 0.82(1) 0.85(1) 0
Mo1 Mo5+ 4 a 0.1271(2) 0.3834(1) 0.04377(4) 0.82(1) 0.15(1) 0
W2 W6+ 4 a 0.6091(1) 0.6065(1) 0.16022(4) 0.71(1) 1. 0
P1 P5+ 4 a 0.133(1) 0.766(5) 0.2740(3) 0.48(1) 1. 0
Na1 Na1+ 4 a 0.358(7) 0.035(3) 0.136(1) 2.08(4) 0.41(3) 0
Na2 Na1+ 4 a 0.816(4) 0.487(2) 0.383(1) 2.08(4) 0.49(3) 0
Na3 Na1+ 4 a 0.52(1) 0.027(7) 0.137(4) 2.08(4) 0.16(2) 0
Na4 Na1+ 4 a 0.922(7) 0.272(3) 0.477(3) 1.76(8) 0.30(2) 0
O1 O2- 4 a 0.279(3) 0.505(2) -.0236(8) 0.88(3) 1. 0
O2 O2- 4 a 0.367(3) 0.448(1) 0.1319(7) 0.80(2) 1. 0
O3 O2- 4 a 0.865(3) 0.544(1) 0.0838(7) 0.64(2) 1. 0
O4 O2- 4 a 0.340(3) 0.199(1) 0.0238(7) 0.48(2) 1. 0
O5 O2- 4 a -.037(2) 0.238(1) 0.1400(7) 0.40(2) 1. 0
O6 O2- 4 a 0.460(3) 0.761(1) 0.1101(7) 0.72(3) 1. 0
O7 O2- 4 a 0.369(3) 0.653(1) 0.2597(6) 0.72(1) 1. 0
O8 O2- 4 a 0.901(3) 0.740(1) 0.2122(7) 0.88(2) 1. 0
O9 O2- 4 a 0.773(2) 0.437(1) 0.2395(7) 0.48(2) 1. 0
#End of TTdata_82186-ICSD