
#(C) 2019 by FIZ Karlsruhe - Leibniz Institute for Information Infrastructure.  All rights reserved.
data_82410-ICSD
_database_code_ICSD 82410
_audit_creation_date 1997-11-10
_chemical_name_systematic 'Disodium silico trisilicate - HP'
_chemical_formula_structural 'Na2 Si (Si3 O9)'
_chemical_formula_sum 'Na2 O9 Si4'
_exptl_crystal_density_diffrn 3.09
_publ_section_title

;
Sodium tetrasilicate: a complex high-pressure framework silicate: (Na6 Si3
(Si9 O27))
;
loop_
_citation_id
_citation_journal_full
_citation_year
_citation_journal_volume
_citation_page_first
_citation_page_last
_citation_journal_id_ASTM
primary 'American Mineralogist' 1996 81 1105 1110 AMMIAY
loop_
_publ_author_name
'Fleet, M.E.'
_cell_length_a 10.875(2)
_cell_length_b 9.326(1)
_cell_length_c 19.224(7)
_cell_angle_alpha 90.
_cell_angle_beta 90.18(2)
_cell_angle_gamma 90.
_cell_volume 1949.69
_cell_formula_units_Z 12
_symmetry_space_group_name_H-M 'P 1 21/n 1'
_symmetry_Int_Tables_number 14
_refine_ls_R_factor_all 0.05
loop_
_symmetry_equiv_pos_site_id
_symmetry_equiv_pos_as_xyz
1 '-x+1/2, y+1/2, -z+1/2'
2 '-x, -y, -z'
3 'x+1/2, -y+1/2, z+1/2'
4 'x, y, z'
loop_
_atom_type_symbol
_atom_type_oxidation_number
Na1+ 1
Si4+ 4
O2- -2
loop_
_atom_site_label
_atom_site_type_symbol
_atom_site_symmetry_multiplicity
_atom_site_Wyckoff_symbol
_atom_site_fract_x
_atom_site_fract_y
_atom_site_fract_z
_atom_site_B_iso_or_equiv
_atom_site_occupancy
_atom_site_attached_hydrogens
Na1 Na1+ 4 e 0.9383(1) 0.0513(2) 0.2955(1) . 1. 0
Na2 Na1+ 4 e 0.9274(1) 0.4768(2) 0.2722(1) . 1. 0
Na3 Na1+ 4 e 0.4367(1) 0.0447(2) 0.3863(1) . 1. 0
Na4 Na1+ 4 e 0.3948(1) 0.0263(2) 0.0773(1) . 1. 0
Na5 Na1+ 4 e 0.4833(1) 0.4635(2) 0.3842(1) . 1. 0
Na6 Na1+ 4 e 0.3304(1) 0.4582(2) 0.0726(1) . 1. 0
Si1 Si4+ 4 e 0.71897(8) 0.00508(10) 0.41306(4) . 1. 0
Si2 Si4+ 4 e 0.27224(7) 0.00272(10) 0.24171(4) . 1. 0
Si3 Si4+ 4 e 0.78255(8) 0.49927(10) 0.42084(4) . 1. 0
Si4 Si4+ 4 e 0.94002(7) 0.22798(10) 0.45674(4) . 1. 0
Si5 Si4+ 4 e 0.56746(7) 0.2745(1) 0.10670(4) . 1. 0
Si6 Si4+ 4 e 0.44151(7) 0.27507(10) 0.24580(4) . 1. 0
Si7 Si4+ 4 e 0.71925(7) 0.26456(10) 0.30325(4) . 1. 0
Si8 Si4+ 4 e 0.87596(7) 0.24314(10) 0.16051(4) . 1. 0
Si9 Si4+ 4 e 0.15079(7) 0.2421(1) 0.15532(4) . 1. 0
Si10 Si4+ 4 e 0.59627(7) 0.26068(10) 0.49017(4) . 1. 0
Si11 Si4+ 4 e 0.30679(7) 0.26137(10) 0.48260(4) . 1. 0
Si12 Si4+ 4 e 0.16298(7) 0.24081(11) 0.34665(4) . 1. 0
O1 O2- 4 e 0.9020(2) 0.3930(3) 0.4583(1) . 1. 0
O2 O2- 4 e 0.5008(2) 0.3087(3) 0.0327(1) . 1. 0
O3 O2- 4 e 0.8965(2) 0.3967(3) 0.1260(1) . 1. 0
O4 O2- 4 e 0.4568(2) 0.3128(3) 0.1629(1) . 1. 0
O5 O2- 4 e 0.2835(2) 0.2417(3) 0.3980(1) . 1. 0
O6 O2- 4 e 0.7808(2) 0.3919(3) 0.3456(1) . 1. 0
O7 O2- 4 e 0.4507(2) 0.3097(3) 0.4876(1) . 1. 0
O8 O2- 4 e 0.1906(2) 0.3964(3) 0.1832(1) . 1. 0
O9 O2- 4 e 0.3548(2) 0.3930(3) 0.2791(1) . 1. 0
O10 O2- 4 e 0.0156(2) 0.1915(3) 0.1837(1) . 1. 0
O11 O2- 4 e 0.8065(2) 0.2535(3) 0.2348(1) . 1. 0
O12 O2- 4 e 0.6702(2) 0.3900(3) 0.1240(1) . 1. 0
O13 O2- 4 e 0.0436(2) 0.1941(3) 0.3958(1) . 1. 0
O14 O2- 4 e 0.7244(2) 0.1074(3) 0.3339(1) . 1. 0
O15 O2- 4 e 0.8331(2) 0.1144(3) 0.4511(1) . 1. 0
O16 O2- 4 e 0.1309(2) 0.3934(3) 0.3130(1) . 1. 0
O17 O2- 4 e 0.6649(2) 0.3938(3) 0.4575(1) . 1. 0
O18 O2- 4 e 0.5777(2) 0.3093(3) 0.2813(1) . 1. 0
O19 O2- 4 e 0.2148(2) 0.3876(3) 0.5045(1) . 1. 0
O20 O2- 4 e 0.1756(2) 0.1106(3) 0.2943(1) . 1. 0
O21 O2- 4 e 0.2430(2) 0.1108(3) 0.1673(1) . 1. 0
O22 O2- 4 e 0.4068(2) 0.1116(3) 0.2616(1) . 1. 0
O23 O2- 4 e 0.1415(2) 0.2678(3) 0.0707(1) . 1. 0
O24 O2- 4 e 0.8309(2) 0.1132(3) 0.1152(1) . 1. 0
O25 O2- 4 e 0.5983(2) 0.1088(3) 0.1183(1) . 1. 0
O26 O2- 4 e 0.2835(2) 0.1017(3) 0.5101(1) . 1. 0
O27 O2- 4 e 0.6020(2) 0.1154(3) 0.4471(1) . 1. 0
loop_
_atom_site_aniso_label
_atom_site_aniso_type_symbol
_atom_site_aniso_B_11
_atom_site_aniso_B_22
_atom_site_aniso_B_33
_atom_site_aniso_B_12
_atom_site_aniso_B_13
_atom_site_aniso_B_23
Na1 Na1+ 1.61(6) 1.15(6) 2.01(7) 0.24(5) -.04(5) 0.12(5)
Na2 Na1+ 1.66(6) 1.37(6) 1.97(7) -.75(5) 0.56(5) -.36(5)
Na3 Na1+ 1.08(5) 1.52(7) 2.50(7) 0.31(5) -.69(5) -1.01(6)
Na4 Na1+ 1.98(6) 1.34(6) 0.90(5) -.51(5) -.27(4) 0.10(4)
Na5 Na1+ 2.14(6) 1.35(6) 1.84(6) -.08(5) -.37(5) 0.60(5)
Na6 Na1+ 1.66(6) 1.56(7) 1.31(6) 0.52(5) -.13(4) -.21(5)
Si1 Si4+ 0.65(3) 0.40(3) 0.54(3) -.01(3) -.19(2) -.02(3)
Si2 Si4+ 0.60(3) 0.30(3) 0.60(3) 0.04(3) -.01(2) -.02(3)
Si3 Si4+ 0.55(3) 0.38(3) 0.61(3) 0.01(3) -.04(2) 0.04(3)
Si4 Si4+ 0.28(3) 0.65(3) 0.22(3) -.05(3) 0.03(2) 0.02(3)
Si5 Si4+ 0.32(3) 0.64(3) 0.26(3) -.05(3) 0.03(2) 0.00(3)
Si6 Si4+ 0.38(3) 0.62(3) 0.31(3) 0.03(3) 0.02(2) 0.00(3)
Si7 Si4+ 0.33(3) 0.59(3) 0.28(3) 0.05(3) 0.10(2) -.02(3)
Si8 Si4+ 0.38(3) 0.50(3) 0.23(3) -.02(3) 0.08(2) 0.02(3)
Si9 Si4+ 0.37(3) 0.48(3) 0.36(3) -.01(3) -.04(2) -.01(3)
Si10 Si4+ 0.36(3) 0.52(3) 0.28(3) 0.00(3) -.05(2) -.01(3)
Si11 Si4+ 0.31(3) 0.64(3) 0.31(3) 0.02(3) 0.00(2) 0.03(3)
Si12 Si4+ 0.44(3) 0.66(3) 0.25(3) 0.00(3) -.01(2) -.02(3)
O1 O2- 1.10(8) 0.62(9) 0.51(8) 0.13(7) -.20(6) -.01(7)
O2 O2- 1.24(9) 1.34(10) 0.24(8) 0.11(8) -.20(6) -.09(8)
O3 O2- 0.92(8) 0.43(9) 1.21(9) 0.14(7) -.12(7) 0.22(8)
O4 O2- 0.41(7) 1.07(10) 0.64(8) 0.04(7) 0.27(6) 0.10(8)
O5 O2- 0.94(8) 1.82(11) 0.33(7) 0.14(9) 0.03(6) -.04(8)
O6 O2- 1.15(9) 0.73(9) 0.81(9) -.24(8) 0.19(7) -.19(8)
O7 O2- 0.13(7) 1.09(10) 0.94(8) 0.00(7) 0.21(6) -.01(8)
O8 O2- 1.21(9) 0.44(9) 0.75(9) -.07(7) -.24(7) -.19(8)
O9 O2- 0.55(8) 0.83(9) 0.57(8) 0.22(7) -.03(6) 0.01(8)
O10 O2- 0.48(8) 1.64(11) 0.54(8) 0.00(7) -.25(6) 0.30(8)
O11 O2- 1.31(8) 1.95(11) 0.42(8) 0.19(9) 0.13(6) 0.01(9)
O12 O2- 0.87(8) 0.87(10) 0.64(8) -.29(7) -.13(6) 0.10(8)
O13 O2- 0.65(8) 1.09(10) 0.72(8) -.06(7) 0.28(6) -.03(8)
O14 O2- 1.33(9) 0.77(10) 0.72(9) 0.08(8) -.09(7) 0.14(8)
O15 O2- 0.54(8) 0.72(9) 1.00(9) -.21(7) -.13(6) -.03(8)
O16 O2- 0.77(8) 0.32(9) 1.13(9) -.08(7) 0.13(7) 0.16(7)
O17 O2- 0.85(8) 0.74(10) 1.27(10) -.07(7) 0.04(7) 0.26(8)
O18 O2- 0.70(8) 1.3(1) 0.85(9) -.07(8) -.15(6) -.04(8)
O19 O2- 0.95(8) 0.75(9) 0.88(9) 0.30(7) -.07(7) -.33(8)
O20 O2- 0.89(9) 0.61(9) 1.00(9) 0.05(7) 0.18(7) -.14(8)
O21 O2- 0.78(8) 0.77(9) 0.56(8) 0.00(7) 0.11(7) 0.20(8)
O22 O2- 0.81(8) 0.43(9) 0.67(9) 0.02(7) -.20(6) -.06(7)
O23 O2- 1.18(8) 1.57(11) 0.41(8) 0.18(7) -.05(6) -.11(7)
O24 O2- 0.59(8) 0.86(10) 1.4(1) -.12(7) -.02(7) -.43(8)
O25 O2- 0.73(8) 0.74(9) 0.62(8) 0.12(7) 0.05(6) -.11(7)
O26 O2- 0.91(8) 0.61(9) 0.97(9) -.04(7) -.08(7) 0.15(8)
O27 O2- 0.93(8) 0.66(9) 0.88(9) 0.05(7) -.15(7) -.28(8)
#End of TTdata_82410-ICSD