
#(C) 2019 by FIZ Karlsruhe - Leibniz Institute for Information Infrastructure.  All rights reserved.
data_82469-ICSD
_database_code_ICSD 82469
_audit_creation_date 1997-11-10
_audit_update_record 2007-08-01
_chemical_name_systematic 'Tetrasodium tris(alumotrisilicate) chloride'
_chemical_formula_structural 'Na4 (Al Si3 O8)3 Cl'
_chemical_formula_sum 'Al3 Cl1 Na4 O24 Si9'
_chemical_name_structure_type Na4Al4Si9O24Cl
_chemical_name_mineral Marialite
_exptl_crystal_density_diffrn 2.57
_publ_section_title

;
Marialite: a Rietveld structure-refinement and (29)Si MAS and (27)Al satellite
transition NMR spectroscopy
;
loop_
_citation_id
_citation_journal_full
_citation_year
_citation_journal_volume
_citation_page_first
_citation_page_last
_citation_journal_id_ASTM
primary 'Canadian Mineralogist' 1996 34 1039 1050 CAMIA6
loop_
_publ_author_name
'Sokolova, E.V.'
'Kabalov, Yu.K.'
'Sherriff, B.L.'
'Teertstra, D.K.'
'Jenkins, D.M.'
'Kunath-Fandrei, G.'
'Goetz, S.'
'Jaeger, C.'
_cell_length_a 12.0396(2)
_cell_length_b 12.0396(2)
_cell_length_c 7.5427(2)
_cell_angle_alpha 90.
_cell_angle_beta 90.
_cell_angle_gamma 90.
_cell_volume 1093.33
_cell_formula_units_Z 2
_symmetry_space_group_name_H-M 'I 4/m'
_symmetry_Int_Tables_number 87
_refine_ls_R_factor_all 0.0704
loop_
_symmetry_equiv_pos_site_id
_symmetry_equiv_pos_as_xyz
1 '-y, x, -z'
2 'y, -x, -z'
3 'x, y, -z'
4 '-x, -y, -z'
5 'y, -x, z'
6 '-y, x, z'
7 '-x, -y, z'
8 'x, y, z'
9 '-y+1/2, x+1/2, -z+1/2'
10 'y+1/2, -x+1/2, -z+1/2'
11 'x+1/2, y+1/2, -z+1/2'
12 '-x+1/2, -y+1/2, -z+1/2'
13 'y+1/2, -x+1/2, z+1/2'
14 '-y+1/2, x+1/2, z+1/2'
15 '-x+1/2, -y+1/2, z+1/2'
16 'x+1/2, y+1/2, z+1/2'
loop_
_atom_type_symbol
_atom_type_oxidation_number
Na1+ 1
Si4+ 4
Al3+ 3
O2- -2
Cl1- -1
loop_
_atom_site_label
_atom_site_type_symbol
_atom_site_symmetry_multiplicity
_atom_site_Wyckoff_symbol
_atom_site_fract_x
_atom_site_fract_y
_atom_site_fract_z
_atom_site_B_iso_or_equiv
_atom_site_occupancy
_atom_site_attached_hydrogens
Na1 Na1+ 8 h 0.3741(5) 0.2997 0.5 4.5(2) 1. 0
Si1 Si4+ 8 h 0.3386(3) 0.4107(2) 0 1.05(8) 1. 0
Si2 Si4+ 16 i 0.6611(3) 0.9154(3) 0.7936(3) 1.45(5) 0.625 0
Al1 Al3+ 16 i 0.6611(3) 0.9154(3) 0.7936(3) 1.45(5) 0.375 0
O1 O2- 8 h 0.4564(7) 0.3522(7) 0 1.5(3) 1. 0
O2 O2- 8 h 0.6909(7) 0.8823(7) 0 1.5(3) 1. 0
O3 O2- 16 i 0.3538 0.9488 0.7845(9) 2.0(2) 1. 0
O4 O2- 16 i 0.2691 0.3729 0.8250(9) 2.0(2) 1. 0
Cl1 Cl1- 2 a 0.5 0.5 0.5 3.8(2) 1. 0
#End of TTdata_82469-ICSD