
#(C) 2019 by FIZ Karlsruhe - Leibniz Institute for Information Infrastructure.  All rights reserved.
data_82752-ICSD
_database_code_ICSD 82752
_audit_creation_date 1998-06-26
_audit_update_record 2006-04-01
_chemical_name_systematic 'Sodium cobalt phosphate(V) - alpha'
_chemical_formula_structural 'Na Co (P O4)'
_chemical_formula_sum 'Co1 Na1 O4 P1'
_chemical_name_structure_type Olivine-Mg2SiO4
_exptl_crystal_density_diffrn 3.89
_publ_section_title 'Structural chemistry of Na Co P O4'
loop_
_citation_id
_citation_journal_full
_citation_year
_citation_journal_volume
_citation_page_first
_citation_page_last
_citation_journal_id_ASTM
primary 'Acta Crystallographica, Section B: Structural Science' 1996 52 440 449
ASBSDK
loop_
_publ_author_name
'Hammond, R.P.'
'Barbier, J.'
_cell_length_a 8.871(3)
_cell_length_b 6.780(3)
_cell_length_c 5.023(1)
_cell_angle_alpha 90.
_cell_angle_beta 90.
_cell_angle_gamma 90.
_cell_volume 302.11
_cell_formula_units_Z 4
_symmetry_space_group_name_H-M 'P n m a'
_symmetry_Int_Tables_number 62
_refine_ls_R_factor_all 0.031
loop_
_symmetry_equiv_pos_site_id
_symmetry_equiv_pos_as_xyz
1 'x+1/2, y, -z+1/2'
2 'x, -y+1/2, z'
3 '-x+1/2, y+1/2, z+1/2'
4 '-x, -y, -z'
5 '-x+1/2, -y, z+1/2'
6 '-x, y+1/2, -z'
7 'x+1/2, -y+1/2, -z+1/2'
8 'x, y, z'
loop_
_atom_type_symbol
_atom_type_oxidation_number
Na1+ 1
Co2+ 2
P5+ 5
O2- -2
loop_
_atom_site_label
_atom_site_type_symbol
_atom_site_symmetry_multiplicity
_atom_site_Wyckoff_symbol
_atom_site_fract_x
_atom_site_fract_y
_atom_site_fract_z
_atom_site_B_iso_or_equiv
_atom_site_occupancy
_atom_site_attached_hydrogens
Na1 Na1+ 4 c 0.85208(15) 0.25 0.5315(3) . 1. 0
Co1 Co2+ 4 a 0.5 0.5 0.5 . 1. 0
P1 P5+ 4 c 0.17765(8) 0.25 0.4621(2) . 1. 0
O1 O2- 4 c 0.1180(2) 0.25 0.7495(4) . 1. 0
O2 O2- 4 c 0.3530(2) 0.25 0.4516(4) . 1. 0
O3 O2- 8 d 0.1231(2) 0.0661(2) 0.3165(3) . 1. 0
loop_
_atom_site_aniso_label
_atom_site_aniso_type_symbol
_atom_site_aniso_U_11
_atom_site_aniso_U_22
_atom_site_aniso_U_33
_atom_site_aniso_U_12
_atom_site_aniso_U_13
_atom_site_aniso_U_23
Na1 Na1+ 0.0152(5) 0.0223(6) 0.0123(6) 0 0.0014(5) 0
Co1 Co2+ 0.0133(2) 0.0174(2) 0.0147(2) -.0061(2) 0.00688(14) -.0078(2)
P1 P5+ 0.0069(3) 0.0113(3) 0.0074(3) 0 -.0006(2) 0
O1 O2- 0.0089(8) 0.0174(9) 0.0084(8) 0 0.0013(6) 0
O2 O2- 0.0062(7) 0.0140(9) 0.0098(8) 0 0.0003(6) 0
O3 O2- 0.0152(6) 0.0152(7) 0.0119(5) -.0023(6) -.0049(5) -.0019(5)
#End of TTdata_82752-ICSD