
#(C) 2019 by FIZ Karlsruhe - Leibniz Institute for Information Infrastructure.  All rights reserved.
data_82753-ICSD
_database_code_ICSD 82753
_audit_creation_date 1998-06-26
_audit_update_record 2006-04-01
_chemical_name_systematic 'Sodium cobalt phosphate(V) - beta'
_chemical_formula_structural 'Na Co (P O4)'
_chemical_formula_sum 'Co1 Na1 O4 P1'
_exptl_crystal_density_diffrn 3.3
_publ_section_title 'Structural chemistry of Na Co P O4'
loop_
_citation_id
_citation_journal_full
_citation_year
_citation_journal_volume
_citation_page_first
_citation_page_last
_citation_journal_id_ASTM
primary 'Acta Crystallographica, Section B: Structural Science' 1996 52 440 449
ASBSDK
loop_
_publ_author_name
'Hammond, R.P.'
'Barbier, J.'
_cell_length_a 10.166(1)
_cell_length_b 10.166(1)
_cell_length_c 23.881(5)
_cell_angle_alpha 90.
_cell_angle_beta 90.
_cell_angle_gamma 120.
_cell_volume 2137.39
_cell_formula_units_Z 24
_symmetry_space_group_name_H-M 'P 65'
_symmetry_Int_Tables_number 170
_refine_ls_R_factor_all 0.046
loop_
_symmetry_equiv_pos_site_id
_symmetry_equiv_pos_as_xyz
1 'x-y, x, z+5/6'
2 'y, -x+y, z+1/6'
3 '-x, -y, z+1/2'
4 '-x+y, -x, z+1/3'
5 '-y, x-y, z+2/3'
6 'x, y, z'
loop_
_atom_type_symbol
_atom_type_oxidation_number
Na1+ 1
Co2+ 2
P5+ 5
O2- -2
loop_
_atom_site_label
_atom_site_type_symbol
_atom_site_symmetry_multiplicity
_atom_site_Wyckoff_symbol
_atom_site_fract_x
_atom_site_fract_y
_atom_site_fract_z
_atom_site_B_iso_or_equiv
_atom_site_occupancy
_atom_site_attached_hydrogens
Na1 Na1+ 6 a 0.0318(4) 0.0379(4) 0.0887(2) . 1. 0
Na2 Na1+ 6 a 0.9633(4) 0.5110(3) 0.08741(14) . 1. 0
Na3 Na1+ 6 a 0.5329(3) 0.0475(3) 0.08716(11) . 1. 0
Na4 Na1+ 6 a 0.5596(3) 0.4949(3) 0.08139(13) . 1. 0
Co1 Co2+ 6 a 0.34251(9) 0.67147(10) 0.14977(4) . 1. 0
Co2 Co2+ 6 a 0.68563(10) 0.85143(10) 0.01533(3) . 1. 0
Co3 Co2+ 6 a 0.20792(9) 0.38073(10) 0.04185(3) . 1. 0
Co4 Co2+ 6 a 0.18404(9) 0.88352(9) 0.01197(3) . 1. 0
P1 P5+ 6 a 0.3279(2) 0.6876(2) 0.01435(6) . 1. 0
P2 P5+ 6 a 0.6895(2) 0.8364(2) 0.14593(6) . 1. 0
P3 P5+ 6 a 0.2161(2) 0.3484(2) 0.17330(6) . 1. 0
P4 P5+ 6 a 0.2118(2) 0.8820(2) 0.14400(6) . 1. 0
O1 O2- 6 a 0.7163(5) 0.2037(6) 0.0254(2) . 1. 0
O2 O2- 6 a 0.6298(6) 0.2652(6) 0.9074(2) . 1. 0
O3 O2- 6 a 0.2672(5) 0.8137(5) 0.8471(2) . 1. 0
O4 O2- 6 a 0.6681(5) 0.1475(5) 0.6716(2) . 1. 0
O5 O2- 6 a 0.7042(5) 0.9936(5) 0.1361(2) . 1. 0
O6 O2- 6 a 0.0576(5) 0.2066(5) 0.1685(2) . 1. 0
O7 O2- 6 a 0.2383(6) 0.9174(6) 0.7560(2) . 1. 0
O8 O2- 6 a 0.4826(5) 0.8323(5) 0.0134(2) . 1. 0
O9 O2- 6 a 0.6785(5) 0.9912(5) 0.8839(2) . 1. 0
O10 O2- 6 a 0.5507(5) 0.2199(5) 0.1554(2) . 1. 0
O11 O2- 6 a 0.1957(5) 0.1885(5) 0.0130(2) . 1. 0
O12 O2- 6 a 0.6159(6) 0.9152(6) 0.7827(2) . 1. 0
O13 O2- 6 a 0.2698(5) 0.9536(5) 0.0868(2) . 1. 0
O14 O2- 6 a 0.9719(5) 0.8331(5) 0.0107(2) . 1. 0
O15 O2- 6 a 0.3265(5) 0.0595(5) 0.9696(2) . 1. 0
O16 O2- 6 a 0.2164(5) 0.7205(5) 0.9821(2) . 1. 0
loop_
_atom_site_aniso_label
_atom_site_aniso_type_symbol
_atom_site_aniso_U_11
_atom_site_aniso_U_22
_atom_site_aniso_U_33
_atom_site_aniso_U_12
_atom_site_aniso_U_13
_atom_site_aniso_U_23
Na1 Na1+ 0.049(2) 0.031(2) 0.036(2) 0.018(2) 0.021(2) 0.0014(14)
Na2 Na1+ 0.039(2) 0.0242(15) 0.027(2) 0.0179(13) -.0037(14) -.0105(12)
Na3 Na1+ 0.0153(12) 0.0184(12) 0.0172(12) 0.0058(10) 0.0018(10) -.0025(10)
Na4 Na1+ 0.0258(14) 0.0267(15) 0.0225(14) 0.0135(12) -.0089(11) -.0079(12)
Co1 Co2+ 0.0138(3) 0.0134(3) 0.0137(3) 0.0061(3) -.0001(3) 0.0012(3)
Co2 Co2+ 0.0157(4) 0.0133(4) 0.0192(4) 0.0068(3) 0.0027(3) 0.0000(3)
Co3 Co2+ 0.0147(4) 0.0142(4) 0.0123(3) 0.0082(3) 0.0001(3) 0.0002(3)
Co4 Co2+ 0.0132(4) 0.0146(4) 0.0139(3) 0.0068(3) -.0002(3) 0.0004(3)
P1 P5+ 0.0116(6) 0.0097(6) 0.0127(6) 0.0050(5) 0.0006(5) -.0009(5)
P2 P5+ 0.0133(6) 0.0107(6) 0.0129(6) 0.0061(5) -.0002(5) -.0004(5)
P3 P5+ 0.0118(6) 0.0099(6) 0.0123(6) 0.0056(5) 0.0004(5) 0.0000(5)
P4 P5+ 0.0102(6) 0.0110(6) 0.0120(6) 0.0048(5) -.0005(5) -.0007(5)
O1 O2- 0.012(2) 0.022(2) 0.021(2) 0.010(2) 0.005(2) 0.006(2)
O2 O2- 0.028(2) 0.033(2) 0.011(2) 0.020(2) 0.004(2) 0.006(2)
O3 O2- 0.025(2) 0.023(2) 0.021(2) 0.018(2) -.005(2) -.005(2)
O4 O2- 0.023(2) 0.021(2) 0.018(2) 0.014(2) 0.013(2) 0.009(2)
O5 O2- 0.023(2) 0.012(2) 0.019(2) 0.008(2) -.006(2) -.002(2)
O6 O2- 0.010(2) 0.015(2) 0.027(2) 0.003(2) 0.000(2) -.003(2)
O7 O2- 0.023(2) 0.028(2) 0.012(2) 0.000(2) 0.001(2) 0.004(2)
O8 O2- 0.013(2) 0.014(2) 0.038(3) 0.004(2) 0.001(2) -.005(2)
O9 O2- 0.020(2) 0.015(2) 0.013(2) 0.008(2) 0.003(2) -.0036(15)
O10 O2- 0.010(2) 0.020(2) 0.024(2) 0.005(2) 0.000(2) -.010(2)
O11 O2- 0.013(2) 0.016(2) 0.021(2) 0.007(2) 0.006(2) -.002(2)
O12 O2- 0.038(3) 0.023(2) 0.008(2) 0.019(2) -.005(2) 0.001(2)
O13 O2- 0.023(2) 0.020(2) 0.013(2) 0.006(2) -.001(2) -.002(2)
O14 O2- 0.014(2) 0.015(2) 0.036(3) 0.005(2) -.005(2) -.007(2)
O15 O2- 0.022(2) 0.013(2) 0.021(2) 0.011(2) 0.006(2) 0.000(2)
O16 O2- 0.026(2) 0.021(2) 0.018(2) 0.015(2) -.009(2) -.005(2)
#End of TTdata_82753-ICSD