
#(C) 2019 by FIZ Karlsruhe - Leibniz Institute for Information Infrastructure.  All rights reserved.
data_82764-ICSD
_database_code_ICSD 82764
_audit_creation_date 1998-06-26
_audit_update_record 1999-01-19
_chemical_name_systematic 'Hexasodium heptacadmium sulfide'
_chemical_formula_structural 'Na6 Cd7 S10'
_chemical_formula_sum 'Cd7 Na6 S10'
_exptl_crystal_density_diffrn 3.68
_cell_measurement_temperature 296.
_publ_section_title

;
Synthesis and characterrization of Na8 Cd7 S10: a new framework sulfide with
1-D channels containing 12- and 16-member rings and a sulfide anion in an
umbrella-like geometry
;
loop_
_citation_id
_citation_journal_full
_citation_year
_citation_journal_volume
_citation_page_first
_citation_page_last
_citation_journal_id_ASTM
primary 'Chemistry of Materials' 1996 8 1350 1352 CMATEX
loop_
_publ_author_name
'Axtell, E.A.'
'Kanatzidis, M.G.'
_cell_length_a 26.564(3)
_cell_length_b 4.2385(4)
_cell_length_c 10.523(2)
_cell_angle_alpha 90.
_cell_angle_beta 108.48(1)
_cell_angle_gamma 90.
_cell_volume 1123.71
_cell_formula_units_Z 2
_symmetry_space_group_name_H-M 'C 1 2/m 1'
_symmetry_Int_Tables_number 12
_refine_ls_R_factor_all 0.055
loop_
_symmetry_equiv_pos_site_id
_symmetry_equiv_pos_as_xyz
1 '-x, y, -z'
2 '-x, -y, -z'
3 'x, -y, z'
4 'x, y, z'
5 '-x+1/2, y+1/2, -z'
6 '-x+1/2, -y+1/2, -z'
7 'x+1/2, -y+1/2, z'
8 'x+1/2, y+1/2, z'
loop_
_atom_type_symbol
_atom_type_oxidation_number
Cd2+ 2
S2- -2
Na1+ 1
loop_
_atom_site_label
_atom_site_type_symbol
_atom_site_symmetry_multiplicity
_atom_site_Wyckoff_symbol
_atom_site_fract_x
_atom_site_fract_y
_atom_site_fract_z
_atom_site_B_iso_or_equiv
_atom_site_occupancy
_atom_site_attached_hydrogens
Cd1 Cd2+ 4 i 0.15553(7) 0 0.2806(2) . 1. 0
Cd2 Cd2+ 4 i 0.44221(8) 0 0.5257(2) . 1. 0
Cd3 Cd2+ 4 i 0.3927(1) 0 0.0418(2) . 0.81 0
Cd4 Cd2+ 4 i 0.2512(1) 0.5 0.1170(3) . 0.69 0
S1 S2- 4 i 0.3138(2) 0 0.1374(6) . 1. 0
S2 S2- 4 i 0.2130(2) 0.5 0.3180(6) . 1. 0
S3 S2- 4 i 0.0833(2) 0 0.0562(5) . 1. 0
S4 S2- 4 i 0.4649(2) 0 0.2997(5) . 1. 0
S5 S2- 4 i 0.1137(2) 0 0.4697(5) . 1. 0
Na1 Na1+ 4 i 0.0092(4) 0 0.192(1) . 1. 0
Na2 Na1+ 4 i 0.2983(4) 0 0.421(1) . 1. 0
Na3 Na1+ 4 i 0.3880(4) 0.5 0.265(1) . 1. 0
loop_
_atom_site_aniso_label
_atom_site_aniso_type_symbol
_atom_site_aniso_U_11
_atom_site_aniso_U_22
_atom_site_aniso_U_33
_atom_site_aniso_U_12
_atom_site_aniso_U_13
_atom_site_aniso_U_23
Cd1 Cd2+ 0.0121(9) 0.018(1) 0.0129(7) 0 0.0026(6) 0
Cd2 Cd2+ 0.022(1) 0.024(1) 0.0211(8) 0 0.0054(7) 0
Cd3 Cd2+ 0.032(1) 0.017(1) 0.036(1) 0 0.019(1) 0
Cd4 Cd2+ 0.032(2) 0.026(2) 0.027(1) 0 0.010(1) 0
S1 S2- 0.014(3) 0.018(4) 0.029(3) 0 0.003(2) 0
S2 S2- 0.021(3) 0.010(3) 0.034(3) 0 0.015(3) 0
S3 S2- 0.017(3) 0.024(4) 0.010(2) 0 -.002(2) 0
S4 S2- 0.014(3) 0.013(3) 0.007(2) 0 0.001(2) 0
S5 S2- 0.023(3) 0.018(3) 0.015(2) 0 0.010(2) 0
Na1 Na1+ 0.026(5) 0.022(6) 0.031(5) 0 0.019(4) 0
Na2 Na1+ 0.027(5) 0.035(6) 0.021(5) 0 0.010(4) 0
Na3 Na1+ 0.023(5) 0.012(5) 0.029(5) 0 0.006(4) 0
#End of TTdata_82764-ICSD