
#(C) 2019 by FIZ Karlsruhe - Leibniz Institute for Information Infrastructure.  All rights reserved.
data_82775-ICSD
_database_code_ICSD 82775
_audit_creation_date 1998-06-26
_audit_update_record 1999-11-30
_chemical_name_systematic
'Lithium sodium gallium catena-disilicate (0.64/0.36/1/1)'
_chemical_formula_structural '(Li0.642 Na0.358) Ga (Si2 O6)'
_chemical_formula_sum 'Ga1 Li0.642 Na0.358 O6 Si2'
_chemical_name_structure_type Pyroxene-CaMg(SiO3)2
_chemical_name_mineral Unnamed_Pyroxene
_exptl_crystal_density_diffrn 3.81
_cell_measurement_temperature 295.
_publ_section_title 'Crystal structures of (Li,Na) Ga Si2 O6 clinopyroxenes'
loop_
_citation_id
_citation_journal_full
_citation_year
_citation_journal_volume
_citation_page_first
_citation_page_last
_citation_journal_id_ASTM
primary Ganko 1996 91 401 407 GANKEV
loop_
_publ_author_name
'Ohashi, H.'
'Osawa, T.'
'Sato, A.'
_cell_length_a 9.5464(7)
_cell_length_b 8.6214(3)
_cell_length_c 5.2691(4)
_cell_angle_alpha 90.
_cell_angle_beta 109.336(3)
_cell_angle_gamma 90.
_cell_volume 409.2
_cell_formula_units_Z 4
_symmetry_space_group_name_H-M 'C 1 2/c 1'
_symmetry_Int_Tables_number 15
_refine_ls_R_factor_all 0.019
loop_
_symmetry_equiv_pos_site_id
_symmetry_equiv_pos_as_xyz
1 'x, -y, z+1/2'
2 '-x, -y, -z'
3 '-x, y, -z+1/2'
4 'x, y, z'
5 'x+1/2, -y+1/2, z+1/2'
6 '-x+1/2, -y+1/2, -z'
7 '-x+1/2, y+1/2, -z+1/2'
8 'x+1/2, y+1/2, z'
loop_
_atom_type_symbol
_atom_type_oxidation_number
Si4+ 4
O2- -2
Ga3+ 3
Li1+ 1
Na1+ 1
loop_
_atom_site_label
_atom_site_type_symbol
_atom_site_symmetry_multiplicity
_atom_site_Wyckoff_symbol
_atom_site_fract_x
_atom_site_fract_y
_atom_site_fract_z
_atom_site_B_iso_or_equiv
_atom_site_occupancy
_atom_site_attached_hydrogens
Si1 Si4+ 8 f 0.29510(4) 0.09090(3) 0.25040(7) 0.00515(5) 1. 0
O1 O2- 8 f 0.11327(9) 0.08133(9) 0.1398(2) 0.0062(1) 1. 0
O2 O2- 8 f 0.3632(1) 0.2606(1) 0.3166(2) 0.0095(1) 1. 0
O3 O2- 8 f 0.35579(9) 0.0051(1) 0.0325(2) 0.0096(2) 1. 0
Ga1 Ga3+ 4 e 0 0.90154(2) 0.25 0.00518(3) 1. 0
Li1 Li1+ 4 e 0 0.2883(3) 0.25 0.0206(4) 0.642(4) 0
Na1 Na1+ 4 e 0 0.2883(3) 0.25 0.0206(4) 0.358(4) 0
#End of TTdata_82775-ICSD