
#(C) 2019 by FIZ Karlsruhe - Leibniz Institute for Information Infrastructure.  All rights reserved.
data_83008-ICSD
_database_code_ICSD 83008
_audit_creation_date 1998-06-26
_audit_update_record 1999-11-30
_chemical_name_systematic 'Sodium tecto-alumosilicate *'
_chemical_formula_structural 'Na1.88 (Al1.81 Si2.73 O10)'
_chemical_formula_sum 'Al1.81 Na1.88 O10 Si2.73'
_chemical_name_structure_type Natrolite(F2)
_chemical_name_mineral 'Metanatrolite (dehydrated)'
_exptl_crystal_density_diffrn 2.46
_cell_measurement_temperature 598.
_publ_section_title

;
The phases of natrolite occurring during dehydration and rehydration studied
by single crystal x-ray diffraction methods between room temperature and 923 K
;
loop_
_citation_id
_citation_journal_full
_citation_year
_citation_journal_volume
_citation_page_first
_citation_page_last
_citation_journal_id_ASTM
primary 'Neues Jahrbuch fuer Mineralogie, Monatshefte' 1996 1996 171 187 NJMMAW
loop_
_publ_author_name
'Baur, W.H.'
'Joswig, W.'
_cell_length_a 16.2230(70)
_cell_length_b 17.029(19)
_cell_length_c 6.438(3)
_cell_angle_alpha 90.
_cell_angle_beta 90.
_cell_angle_gamma 90.
_cell_volume 1778.57
_cell_formula_units_Z 8
_symmetry_space_group_name_H-M 'F 1 1 2'
_symmetry_Int_Tables_number 5
_refine_ls_R_factor_all 0.03
loop_
_symmetry_equiv_pos_site_id
_symmetry_equiv_pos_as_xyz
1 '-x, -y, z'
2 'x, y, z'
3 '-x, -y+1/2, z+1/2'
4 'x, y+1/2, z+1/2'
5 '-x+1/2, -y, z+1/2'
6 'x+1/2, y, z+1/2'
7 '-x+1/2, -y+1/2, z'
8 'x+1/2, y+1/2, z'
loop_
_atom_type_symbol
_atom_type_oxidation_number
Si4+ 4
Al3+ 3
O2- -2
Na1+ 1
loop_
_atom_site_label
_atom_site_type_symbol
_atom_site_symmetry_multiplicity
_atom_site_Wyckoff_symbol
_atom_site_fract_x
_atom_site_fract_y
_atom_site_fract_z
_atom_site_B_iso_or_equiv
_atom_site_occupancy
_atom_site_attached_hydrogens
Si1 Si4+ 4 a 0 0 0.98969(6) 0.0316(12) 0.908(12) 0
Si2 Si4+ 4 b 0.25 0.25 0.2408(6) 0.0304(12) 0.924(14) 0
Si3 Si4+ 8 c 0.13714(14) 0.23497(10) 0.6151(4) 0.0293(8) 0.907(10) 0
Si4 Si4+ 8 c 0.11042(13) 0.97857(12) 0.3617(4) 0.0279(8) 0.907(11) 0
Al1 Al3+ 8 c 0.02641(15) 0.10551(13) 0.6050(5) 0.0288(8) 0.903(11) 0
Al2 Al3+ 8 c 0.26764(14) 0.14240(13) 0.8613(5) 0.0303(9) 0.908(11) 0
O1 O2- 8 c 0.0413(3) 0.0701(3) 0.8596(10) 0.0493(13) 1. 0
O2 O2- 8 c 0.2359(3) 0.1711(3) 0.1100(9) 0.0420(12) 1. 0
O3 O2- 8 c 0.0412(4) 0.2084(3) 0.5954(13) 0.0434(16) 1. 0
O4 O2- 8 c 0.2083(4) -.0416(3) 0.3482(13) 0.0396(16) 1. 0
O5 O2- 8 c 0.0905(4) 0.0699(3) 0.4052(10) 0.0479(15) 1. 0
O6 O2- 8 c 0.1465(4) 0.3033(4) 0.7830(11) 0.0498(15) 1. 0
O7 O2- 8 c 0.0724(4) -.0757(3) 0.544(1) 0.0476(16) 1. 0
O8 O2- 8 c 0.1916(4) 0.1593(4) 0.6796(11) 0.0540(16) 1. 0
O9 O2- 8 c 0.0721(4) -.0414(3) 0.1317(12) 0.0462(14) 1. 0
O10 O2- 8 c 0.1688(3) 0.2650(3) 0.3865(10) 0.0453(14) 1. 0
Na1 Na1+ 8 c 0.0620(4) 0.1828(4) 0.1322(12) 0.094(3) 0.940(16) 0
Na2 Na1+ 8 c 0.3110(9) 0.0626(12) 0.3292(25) 0.066(4) 0.47 0
Na3 Na1+ 8 c 0.2871(11) 0.0728(8) 0.3988(25) 0.071(5) 0.47 0
#End of TTdata_83008-ICSD