
#(C) 2019 by FIZ Karlsruhe - Leibniz Institute for Information Infrastructure.  All rights reserved.
data_83012-ICSD
_database_code_ICSD 83012
_audit_creation_date 1998-06-26
_audit_update_record 1999-11-30
_chemical_name_systematic 'Sodium tecto-dialumotrisilicate (1.9/1)'
_chemical_formula_structural 'Na1.92 (Al2 Si3 O10)'
_chemical_formula_sum 'Al2 Na1.92 O10 Si3'
_chemical_name_structure_type Natrolite(F2)
_chemical_name_mineral 'Metanatrolite (dehydrated)'
_exptl_crystal_density_diffrn 2.53
_cell_measurement_temperature 573.
_publ_section_title

;
The phases of natrolite occurring during dehydration and rehydration studied
by single crystal x-ray diffraction methods between room temperature and 923 K
;
loop_
_citation_id
_citation_journal_full
_citation_year
_citation_journal_volume
_citation_page_first
_citation_page_last
_citation_journal_id_ASTM
primary 'Neues Jahrbuch fuer Mineralogie, Monatshefte' 1996 1996 171 187 NJMMAW
loop_
_publ_author_name
'Baur, W.H.'
'Joswig, W.'
_cell_length_a 16.292(23)
_cell_length_b 17.084(11)
_cell_length_c 6.449(2)
_cell_angle_alpha 90.
_cell_angle_beta 90.
_cell_angle_gamma 90.
_cell_volume 1794.97
_cell_formula_units_Z 8
_symmetry_space_group_name_H-M 'F 1 1 2'
_symmetry_Int_Tables_number 5
_refine_ls_R_factor_all 0.04
loop_
_symmetry_equiv_pos_site_id
_symmetry_equiv_pos_as_xyz
1 '-x, -y, z'
2 'x, y, z'
3 '-x, -y+1/2, z+1/2'
4 'x, y+1/2, z+1/2'
5 '-x+1/2, -y, z+1/2'
6 'x+1/2, y, z+1/2'
7 '-x+1/2, -y+1/2, z'
8 'x+1/2, y+1/2, z'
loop_
_atom_type_symbol
_atom_type_oxidation_number
Si4+ 4
Al3+ 3
O2- -2
Na1+ 1
loop_
_atom_site_label
_atom_site_type_symbol
_atom_site_symmetry_multiplicity
_atom_site_Wyckoff_symbol
_atom_site_fract_x
_atom_site_fract_y
_atom_site_fract_z
_atom_site_B_iso_or_equiv
_atom_site_occupancy
_atom_site_attached_hydrogens
Si1 Si4+ 4 a 0 0 -.0113(6) 0.0276(10) 1. 0
Si2 Si4+ 4 b 0.25 0.25 0.2422(5) 0.0299(7) 1. 0
Si3 Si4+ 8 c 0.13731(14) 0.23393(13) 0.6149(4) 0.0290(7) 1. 0
Si4 Si4+ 8 c 0.11008(13) 0.97845(13) 0.3614(5) 0.0284(5) 1. 0
Al1 Al3+ 8 c 0.02673(15) 0.10512(14) 0.6064(5) 0.0294(8) 1. 0
Al2 Al3+ 8 c 0.26843(15) 0.14258(14) 0.8619(5) 0.0289(7) 1. 0
O1 O2- 8 c 0.0422(4) 0.0691(4) 0.8585(11) 0.0423(13) 1. 0
O2 O2- 8 c 0.2371(4) 0.1711(4) 0.1108(11) 0.0416(14) 1. 0
O3 O2- 8 c 0.0421(4) 0.2071(3) 0.5972(14) 0.0342(14) 1. 0
O4 O2- 8 c 0.2075(4) -.0430(3) 0.3504(15) 0.0345(14) 1. 0
O5 O2- 8 c 0.0913(4) 0.0694(3) 0.4090(11) 0.0383(15) 1. 0
O6 O2- 8 c 0.1482(4) 0.3033(4) 0.7820(12) 0.0440(16) 1. 0
O7 O2- 8 c 0.0723(4) -.0762(4) 0.541(1) 0.0379(14) 1. 0
O8 O2- 8 c 0.1925(4) 0.1593(4) 0.6809(13) 0.0440(15) 1. 0
O9 O2- 8 c 0.0715(4) -.0411(4) 0.1317(11) 0.0387(14) 1. 0
O10 O2- 8 c 0.1684(4) 0.2644(4) 0.3853(11) 0.0414(14) 1. 0
Na1 Na1+ 8 c 0.0614(5) 0.1836(4) 0.1320(15) 0.095(3) 1. 0
Na2 Na1+ 8 c 0.2138(9) 0.0621(12) 0.3337(35) 0.080(6) 0.46 0
Na3 Na1+ 8 c 0.2833(10) 0.0735(7) 0.396(3) 0.067(4) 0.46 0
#End of TTdata_83012-ICSD