
#(C) 2019 by FIZ Karlsruhe - Leibniz Institute for Information Infrastructure.  All rights reserved.
data_83010-ICSD
_database_code_ICSD 83010
_audit_creation_date 1998-06-26
_audit_update_record 1999-11-30
_chemical_name_systematic 'Sodium tecto-dialumotrisilicate (1.8/1)'
_chemical_formula_structural 'Na1.82 (Al2 Si3 O10)'
_chemical_formula_sum 'Al2 Na1.82 O10 Si3'
_chemical_name_structure_type Natrolite(F2)
_chemical_name_mineral 'Metanatrolite (dehydrated)'
_exptl_crystal_density_diffrn 2.42
_cell_measurement_temperature 723.
_publ_section_title

;
The phases of natrolite occurring during dehydration and rehydration studied
by single crystal x-ray diffraction methods between room temperature and 923 K
;
loop_
_citation_id
_citation_journal_full
_citation_year
_citation_journal_volume
_citation_page_first
_citation_page_last
_citation_journal_id_ASTM
primary 'Neues Jahrbuch fuer Mineralogie, Monatshefte' 1996 1996 171 187 NJMMAW
loop_
_publ_author_name
'Baur, W.H.'
'Joswig, W.'
_cell_length_a 16.575(20)
_cell_length_b 17.427(14)
_cell_length_c 6.4610(16)
_cell_angle_alpha 90.
_cell_angle_beta 90.
_cell_angle_gamma 90.
_cell_volume 1866.28
_cell_formula_units_Z 8
_symmetry_space_group_name_H-M 'F 1 1 2'
_symmetry_Int_Tables_number 5
_refine_ls_R_factor_all 0.039
loop_
_symmetry_equiv_pos_site_id
_symmetry_equiv_pos_as_xyz
1 '-x, -y, z'
2 'x, y, z'
3 '-x, -y+1/2, z+1/2'
4 'x, y+1/2, z+1/2'
5 '-x+1/2, -y, z+1/2'
6 'x+1/2, y, z+1/2'
7 '-x+1/2, -y+1/2, z'
8 'x+1/2, y+1/2, z'
loop_
_atom_type_symbol
_atom_type_oxidation_number
Si4+ 4
Al3+ 3
O2- -2
Na1+ 1
loop_
_atom_site_label
_atom_site_type_symbol
_atom_site_symmetry_multiplicity
_atom_site_Wyckoff_symbol
_atom_site_fract_x
_atom_site_fract_y
_atom_site_fract_z
_atom_site_B_iso_or_equiv
_atom_site_occupancy
_atom_site_attached_hydrogens
Si1 Si4+ 4 a 0 0 0.98730(13) 0.0378(17) 1. 0
Si2 Si4+ 4 b 0.25 0.25 0.2430(12) 0.0434(20) 1. 0
Si3 Si4+ 8 c 0.1394(3) 0.2302(3) 0.6185(9) 0.0364(11) 1. 0
Si4 Si4+ 8 c 0.1088(3) -.0240(3) 0.3588(10) 0.0398(13) 1. 0
Al1 Al3+ 8 c 0.0300(3) 0.1018(3) 0.6082(12) 0.0409(14) 1. 0
Al2 Al3+ 8 c 0.2731(3) 0.1451(3) 0.8598(11) 0.0371(13) 1. 0
O1 O2- 8 c 0.0398(8) 0.0685(7) 0.8513(21) 0.057(3) 1. 0
O2 O2- 8 c 0.2447(8) 0.1721(6) 0.1104(23) 0.056(3) 1. 0
O3 O2- 8 c 0.0454(8) 0.2032(7) 0.6033(33) 0.055(4) 1. 0
O4 O2- 8 c 0.2016(7) -.0487(6) 0.3443(25) 0.039(3) 1. 0
O5 O2- 8 c 0.0981(8) 0.0652(5) 0.4278(21) 0.052(3) 1. 0
O6 O2- 8 c 0.148(1) 0.3002(9) 0.7649(31) 0.082(5) 1. 0
O7 O2- 8 c 0.0681(7) -.0795(7) 0.5296(22) 0.053(3) 1. 0
O8 O2- 8 c 0.1942(8) 0.1612(8) 0.6852(23) 0.062(4) 1. 0
O9 O2- 8 c 0.0699 -.0393(6) 0.1302(29) 0.063(4) 1. 0
O10 O2- 8 c 0.1696(8) 0.2582(7) 0.3901(17) 0.056(3) 1. 0
Na1 Na1+ 8 c 0.0565(12) 0.1833(10) 0.1384(36) 0.153(9) 1. 0
Na2 Na1+ 8 c 0.3025(21) 0.0602(24) 0.334(7) 0.128(16) 0.41 0
Na3 Na1+ 8 c 0.2628(12) 0.0731(10) 0.423(5) 0.069(7) 0.41 0
#End of TTdata_83010-ICSD