
#(C) 2019 by FIZ Karlsruhe - Leibniz Institute for Information Infrastructure.  All rights reserved.
data_83011-ICSD
_database_code_ICSD 83011
_audit_creation_date 1998-06-26
_audit_update_record 1999-11-30
_chemical_name_systematic 'Sodium tecto-dialumotrisilicate (1.7/1)'
_chemical_formula_structural 'Na1.74 (Al2 Si3 O10)'
_chemical_formula_sum 'Al2 Na1.74 O10 Si3'
_chemical_name_structure_type Natrolite(F2)
_chemical_name_mineral 'Metanatrolite (dehydrated)'
_exptl_crystal_density_diffrn 2.36
_cell_measurement_temperature 773.
_publ_section_title

;
The phases of natrolite occurring during dehydration and rehydration studied
by single crystal x-ray diffraction methods between room temperature and 923 K
;
loop_
_citation_id
_citation_journal_full
_citation_year
_citation_journal_volume
_citation_page_first
_citation_page_last
_citation_journal_id_ASTM
primary 'Neues Jahrbuch fuer Mineralogie, Monatshefte' 1996 1996 171 187 NJMMAW
loop_
_publ_author_name
'Baur, W.H.'
'Joswig, W.'
_cell_length_a 16.736(17)
_cell_length_b 17.622(11)
_cell_length_c 6.4649(14)
_cell_angle_alpha 90.
_cell_angle_beta 90.
_cell_angle_gamma 90.
_cell_volume 1906.64
_cell_formula_units_Z 8
_symmetry_space_group_name_H-M 'F 1 1 2'
_symmetry_Int_Tables_number 5
_refine_ls_R_factor_all 0.036
loop_
_symmetry_equiv_pos_site_id
_symmetry_equiv_pos_as_xyz
1 '-x, -y, z'
2 'x, y, z'
3 '-x, -y+1/2, z+1/2'
4 'x, y+1/2, z+1/2'
5 '-x+1/2, -y, z+1/2'
6 'x+1/2, y, z+1/2'
7 '-x+1/2, -y+1/2, z'
8 'x+1/2, y+1/2, z'
loop_
_atom_type_symbol
_atom_type_oxidation_number
Si4+ 4
Al3+ 3
O2- -2
Na1+ 1
loop_
_atom_site_label
_atom_site_type_symbol
_atom_site_symmetry_multiplicity
_atom_site_Wyckoff_symbol
_atom_site_fract_x
_atom_site_fract_y
_atom_site_fract_z
_atom_site_B_iso_or_equiv
_atom_site_occupancy
_atom_site_attached_hydrogens
Si1 Si4+ 4 a 0 0 0.98710(12) 0.0411(17) 1. 0
Si2 Si4+ 4 b 0.25 0.25 0.2428(15) 0.0459(18) 1. 0
Si3 Si4+ 8 c 0.1412(3) 0.2275(3) 0.6152(9) 0.0387(11) 1. 0
Si4 Si4+ 8 c 0.1069(3) -.0259(3) 0.3627(11) 0.0433(12) 1. 0
Al1 Al3+ 8 c 0.0319(3) 0.1008(3) 0.6083(11) 0.0437(13) 1. 0
Al2 Al3+ 8 c 0.2754(3) 0.1468(3) 0.8594(11) 0.0412(13) 1. 0
O1 O2- 8 c 0.0369(8) 0.0687(7) 0.8544(22) 0.065(4) 1. 0
O2 O2- 8 c 0.2491(8) 0.1733(6) 0.1112(29) 0.066(4) 1. 0
O3 O2- 8 c 0.0471(7) 0.2021(7) 0.6043(30) 0.056(4) 1. 0
O4 O2- 8 c 0.1978(7) -.0532(6) 0.3468(29) 0.051(4) 1. 0
O5 O2- 8 c 0.0992(6) 0.0625(5) 0.4300(18) 0.048(3) 1. 0
O6 O2- 8 c 0.1472(8) 0.2966(7) 0.7634(25) 0.066(3) 1. 0
O7 O2- 8 c 0.0662(7) -.0811(7) 0.5165(24) 0.060(3) 1. 0
O8 O2- 8 c 0.1982(8) 0.1596(8) 0.6918(25) 0.066(4) 1. 0
O9 O2- 8 c 0.0704(9) -.0351(6) 0.1298(31) 0.074(4) 1. 0
O10 O2- 8 c 0.1724(8) 0.2535(8) 0.3875(26) 0.072(4) 1. 0
Na1 Na1+ 8 c 0.0500(13) 0.1831(11) 0.1441(48) 0.196(12) 0.92(1) 0
Na2 Na1+ 8 c 0.2942(19) 0.0583(22) 0.374(9) 0.168(22) 0.41 0
Na3 Na1+ 8 c 0.2523(10) 0.0714(10) 0.415(4) 0.064(6) 0.41 0
#End of TTdata_83011-ICSD