
#(C) 2019 by FIZ Karlsruhe - Leibniz Institute for Information Infrastructure.  All rights reserved.
data_83312-ICSD
_database_code_ICSD 83312
_audit_creation_date 1998-06-26
_audit_update_record 2011-02-01
_chemical_name_systematic 'Disodium zincsilicate - HT'
_chemical_formula_structural 'Na2 (Zn Si O4)'
_chemical_formula_sum 'Na2 O4 Si1 Zn1'
_chemical_name_structure_type Na2ZnSiO4
_exptl_crystal_density_diffrn 3.28
_cell_measurement_temperature 1023.
_publ_section_title
'The structure of one of the high-temperature modifications of Na2 Zn Si O4'
loop_
_citation_id
_citation_journal_full
_citation_year
_citation_journal_volume
_citation_page_first
_citation_page_last
_citation_journal_id_ASTM
primary 'Solid State Ionics' 1996 92 293 296 SSIOD3
loop_
_publ_author_name
'Grins, J.'
'Eriksson, L.'
'Kanno, Y.'
_cell_length_a 10.759(2)
_cell_length_b 5.313(1)
_cell_length_c 7.211(1)
_cell_angle_alpha 90.
_cell_angle_beta 90.
_cell_angle_gamma 90.
_cell_volume 412.2
_cell_formula_units_Z 4
_symmetry_space_group_name_H-M 'P n a 21'
_symmetry_Int_Tables_number 33
_refine_ls_R_factor_all 0.057
loop_
_symmetry_equiv_pos_site_id
_symmetry_equiv_pos_as_xyz
1 'x+1/2, -y+1/2, z'
2 '-x+1/2, y+1/2, z+1/2'
3 '-x, -y, z+1/2'
4 'x, y, z'
loop_
_atom_type_symbol
_atom_type_oxidation_number
Zn2+ 2
Si4+ 4
Na1+ 1
O2- -2
loop_
_atom_site_label
_atom_site_type_symbol
_atom_site_symmetry_multiplicity
_atom_site_Wyckoff_symbol
_atom_site_fract_x
_atom_site_fract_y
_atom_site_fract_z
_atom_site_B_iso_or_equiv
_atom_site_occupancy
_atom_site_attached_hydrogens
Zn1 Zn2+ 4 a 0.3469(6) 0.204(1) 0.75 1.0(1) 1. 0
Si1 Si4+ 4 a 0.097(2) 0.187(3) 0.005(5) 1.0(3) 1. 0
Na1 Na1+ 4 a 0.609(2) 0.264(4) 0.509(6) 2.2(3) 1. 0
Na2 Na1+ 4 a 0.645(2) 0.789(3) 0.756(8) 2.2(3) 1. 0
O1 O2- 4 a 0.646(2) 0.170(5) 0.185(5) 1.7(4) 1. 0
O2 O2- 4 a 0.388(2) 0.398(5) 0.499(6) 1.7(4) 1. 0
O3 O2- 4 a 0.664(2) 0.202(5) 0.799(6) 1.7(4) 1. 0
O4 O2- 4 a 0.549(2) 0.744(6) 0.470(5) 1.7(4) 1. 0
#End of TTdata_83312-ICSD