
#(C) 2019 by FIZ Karlsruhe - Leibniz Institute for Information Infrastructure.  All rights reserved.
data_83394-ICSD
_database_code_ICSD 83394
_audit_creation_date 1998-06-26
_chemical_name_systematic 'Dirubidium sodium hexacyanoferrate(III)'
_chemical_formula_structural 'Rb2 Na (Fe (C N)6)'
_chemical_formula_sum 'C6 Fe1 N6 Na1 Rb2'
_chemical_name_structure_type LiCs2Cr(CN)6
_exptl_crystal_density_diffrn 2.28
_publ_section_title

;
Die Kristallstrukturen der Eisen- und Cobalt-Hexacyanokomplexe Rb2 Li M (C N)6
und Rb2 Na M (C N)6
;
loop_
_citation_id
_citation_journal_full
_citation_year
_citation_journal_volume
_citation_page_first
_citation_page_last
_citation_journal_id_ASTM
primary 'Zeitschrift fuer Naturforschung, B: A Journal of Chemical Sciences'
1996 51 826 831 ZNBSEN
loop_
_publ_author_name
'Peschel, S.'
'Paulus, W.'
'Babel, D.'
_cell_length_a 7.245(2)
_cell_length_b 7.725(1)
_cell_length_c 10.552(2)
_cell_angle_alpha 90.
_cell_angle_beta 90.39(2)
_cell_angle_gamma 90.
_cell_volume 590.56
_cell_formula_units_Z 2
_symmetry_space_group_name_H-M 'P 1 21/n 1'
_symmetry_Int_Tables_number 14
_refine_ls_R_factor_all 0.036
loop_
_symmetry_equiv_pos_site_id
_symmetry_equiv_pos_as_xyz
1 '-x+1/2, y+1/2, -z+1/2'
2 '-x, -y, -z'
3 'x+1/2, -y+1/2, z+1/2'
4 'x, y, z'
loop_
_atom_type_symbol
_atom_type_oxidation_number
Rb1+ 1
Na1+ 1
Fe3+ 3
C2+ 2
N3- -3
C2+ 2
N3- -3
C2+ 2
N3- -3
loop_
_atom_site_label
_atom_site_type_symbol
_atom_site_symmetry_multiplicity
_atom_site_Wyckoff_symbol
_atom_site_fract_x
_atom_site_fract_y
_atom_site_fract_z
_atom_site_B_iso_or_equiv
_atom_site_occupancy
_atom_site_attached_hydrogens
Rb1 Rb1+ 4 e 0.52254(5) 0.92833(4) 0.24938(4) . 1. 0
Na1 Na1+ 2 b 0 0 0.5 . 1. 0
Fe1 Fe3+ 2 a 0 0 0 . 1. 0
C1 C2+ 4 e 0.0722(4) 0.0193(4) 0.1766(3) . 1. 0
N1 N3- 4 e 0.1137(4) 0.0338(4) 0.2810(3) . 1. 0
C2 C2+ 4 e 0.7805(4) 0.1360(4) 0.0331(3) . 1. 0
N2 N3- 4 e 0.6521(4) 0.2167(4) 0.0538(3) . 1. 0
C3 C2+ 4 e 0.1341(4) 0.2102(4) -.0393(3) . 1. 0
N3 N3- 4 e 0.2140(4) 0.3329(4) -.0629(3) . 1. 0
loop_
_atom_site_aniso_label
_atom_site_aniso_type_symbol
_atom_site_aniso_U_11
_atom_site_aniso_U_22
_atom_site_aniso_U_33
_atom_site_aniso_U_12
_atom_site_aniso_U_13
_atom_site_aniso_U_23
Rb1 Rb1+ 0.0425(2) 0.0356(2) 0.0439(2) -.0046(2) 0.0007(2) 0.0014(2)
Na1 Na1+ 0.0266(9) 0.0288(9) 0.0267(9) -.0003(7) -.0010(7) -.0001(9)
Fe1 Fe3+ 0.0216(3) 0.0186(3) 0.0185(3) 0.0004(2) 0.0010(2) 0.0005(3)
C1 C2+ 0.0270(15) 0.0259(16) 0.0274(16) 0.0029(12) 0.0047(13) 0.0027(13)
N1 N3- 0.0481(18) 0.0474(21) 0.0232(15) 0.0043(14) 0.0004(14) -.0013(12)
C2 C2+ 0.0304(16) 0.0236(15) 0.0254(16) -.0015(13) 0.0013(13) 0.0035(13)
N2 N3- 0.0396(17) 0.0369(17) 0.0524(21) 0.0122(14) 0.0097(15) 0.0062(14)
C3 C2+ 0.0236(15) 0.0275(17) 0.0255(16) -.0005(13) -.0010(13) 0.0012(13)
N3 N3- 0.0368(16) 0.0352(17) 0.0475(19) -.0079(14) -.0034(14) 0.0058(14)
#End of TTdata_83394-ICSD