
#(C) 2019 by FIZ Karlsruhe - Leibniz Institute for Information Infrastructure.  All rights reserved.
data_83395-ICSD
_database_code_ICSD 83395
_audit_creation_date 1998-06-26
_chemical_name_systematic 'Dirubidium sodium hexacyanocobaltate(III)'
_chemical_formula_structural 'Rb2 Na (Co (C N)6)'
_chemical_formula_sum 'C6 Co1 N6 Na1 Rb2'
_chemical_name_structure_type LiCs2Cr(CN)6
_exptl_crystal_density_diffrn 2.34
_publ_section_title

;
Die Kristallstrukturen der Eisen- und Cobalt-Hexacyanokomplexe Rb2 Li M (C N)6
und Rb2 Na M (C N)6
;
loop_
_citation_id
_citation_journal_full
_citation_year
_citation_journal_volume
_citation_page_first
_citation_page_last
_citation_journal_id_ASTM
primary 'Zeitschrift fuer Naturforschung, B: A Journal of Chemical Sciences'
1996 51 826 831 ZNBSEN
loop_
_publ_author_name
'Peschel, S.'
'Paulus, W.'
'Babel, D.'
_cell_length_a 7.225(1)
_cell_length_b 7.663(1)
_cell_length_c 10.492(2)
_cell_angle_alpha 90.
_cell_angle_beta 90.33(1)
_cell_angle_gamma 90.
_cell_volume 580.88
_cell_formula_units_Z 2
_symmetry_space_group_name_H-M 'P 1 21/n 1'
_symmetry_Int_Tables_number 14
_refine_ls_R_factor_all 0.043
loop_
_symmetry_equiv_pos_site_id
_symmetry_equiv_pos_as_xyz
1 '-x+1/2, y+1/2, -z+1/2'
2 '-x, -y, -z'
3 'x+1/2, -y+1/2, z+1/2'
4 'x, y, z'
loop_
_atom_type_symbol
_atom_type_oxidation_number
Rb1+ 1
Na1+ 1
Co3+ 3
C2+ 2
N3- -3
C2+ 2
N3- -3
C2+ 2
N3- -3
loop_
_atom_site_label
_atom_site_type_symbol
_atom_site_symmetry_multiplicity
_atom_site_Wyckoff_symbol
_atom_site_fract_x
_atom_site_fract_y
_atom_site_fract_z
_atom_site_B_iso_or_equiv
_atom_site_occupancy
_atom_site_attached_hydrogens
Rb1 Rb1+ 4 e 0.5215(1) -.0693(1) 0.24980(7) . 1. 0
Na1 Na1+ 2 b 0 0 0.5 . 1. 0
Co1 Co3+ 2 a 0 0 0 . 1. 0
C1 C2+ 4 e 0.0699(9) 0.0190(8) 0.1751(6) . 1. 0
N1 N3- 4 e 0.1119(8) 0.0330(7) 0.2790(5) . 1. 0
C2 C2+ 4 e 0.7844(9) 0.1341(8) 0.0314(6) . 1. 0
N2 N3- 4 e 0.6555(8) 0.2157(7) 0.0507(6) . 1. 0
C3 C2+ 4 e 0.1332(9) 0.2062(9) -.0377(6) . 1. 0
N3 N3- 4 e 0.2123(8) 0.3285(7) -.0609(5) . 1. 0
loop_
_atom_site_aniso_label
_atom_site_aniso_type_symbol
_atom_site_aniso_U_11
_atom_site_aniso_U_22
_atom_site_aniso_U_33
_atom_site_aniso_U_12
_atom_site_aniso_U_13
_atom_site_aniso_U_23
Rb1 Rb1+ 0.0401(5) 0.0350(5) 0.0385(4) -.0049(4) 0.0021(4) 0.0014(4)
Na1 Na1+ 0.0261(22) 0.0262(23) 0.025(2) 0.0009(17) 0.0006(17) 0.0011(20)
Co1 Co3+ 0.0207(8) 0.0158(8) 0.0157(7) 0.0004(6) 0.0011(6) 0.0011(6)
C1 C2+ 0.0221(39) 0.0166(39) 0.031(4) 0.0021(28) 0.0068(32) 0.0005(30)
N1 N3- 0.0449(41) 0.0448(45) 0.0142(31) 0.0017(30) -.0012(29) -.0032(26)
C2 C2+ 0.0322(43) 0.0152(39) 0.0188(34) -.0054(32) 0.0013(32) 0.0009(29)
N2 N3- 0.0336(40) 0.0313(40) 0.0450(41) 0.0096(31) 0.0090(32) 0.0072(29)
C3 C2+ 0.0171(38) 0.0250(45) 0.0213(37) -.0018(32) -.0016(30) 0.0014(30)
N3 N3- 0.0348(39) 0.0266(39) 0.0421(39) -.0035(31) -.0026(32) 0.0039(30)
#End of TTdata_83395-ICSD