
#(C) 2019 by FIZ Karlsruhe - Leibniz Institute for Information Infrastructure.  All rights reserved.
data_83871-ICSD
_database_code_ICSD 83871
_audit_creation_date 1999-01-19
_chemical_name_systematic 'Dirubidium sodium phyllo-dodecafluorotrimanganate'
_chemical_formula_structural 'Rb2 Na (Mn3 F12)'
_chemical_formula_sum 'F12 Mn3 Na1 Rb2'
_chemical_name_structure_type Cs2NaMn3F12
_exptl_crystal_density_diffrn 3.61
_publ_section_title

;
Jahn-Teller ordering in Kagome-type layers of compounds A2 A' Mn(III)3 F12 (A
=Rb,Cs; A'=Li,Na,K)
;
loop_
_citation_id
_citation_journal_full
_citation_year
_citation_journal_volume
_citation_page_first
_citation_page_last
_citation_journal_id_ASTM
primary 'Journal of Alloys and Compounds' 1997 246 155 165 JALCEU
loop_
_publ_author_name
'Englich, U.'
'Frommen, C.'
'Massa, W.'
_cell_length_a 7.115(1)
_cell_length_b 7.482(1)
_cell_length_c 10.160(2)
_cell_angle_alpha 89.92(3)
_cell_angle_beta 86.52(3)
_cell_angle_gamma 89.51(3)
_cell_volume 539.84
_cell_formula_units_Z 2
_symmetry_space_group_name_H-M 'P -1'
_symmetry_Int_Tables_number 2
_refine_ls_R_factor_all 0.027
loop_
_symmetry_equiv_pos_site_id
_symmetry_equiv_pos_as_xyz
1 '-x, -y, -z'
2 'x, y, z'
loop_
_atom_type_symbol
_atom_type_oxidation_number
Rb1+ 1
Mn3+ 3
Na1+ 1
F1- -1
loop_
_atom_site_label
_atom_site_type_symbol
_atom_site_symmetry_multiplicity
_atom_site_Wyckoff_symbol
_atom_site_fract_x
_atom_site_fract_y
_atom_site_fract_z
_atom_site_B_iso_or_equiv
_atom_site_occupancy
_atom_site_attached_hydrogens
Rb1 Rb1+ 2 i 0.97855(7) 0.73773(7) 0.86141(5) 0.0269(2) 1. 0
Rb2 Rb1+ 2 i 0.48896(7) 0.25291(7) 0.38995(5) 0.0291(2) 1. 0
Mn1 Mn3+ 1 e 0.5 0.5 0 0.0106(2) 1. 0
Mn2 Mn3+ 1 d 0.5 0 0 0.0108(2) 1. 0
Mn3 Mn3+ 1 b 0 0 0.5 0.0105(2) 1. 0
Mn4 Mn3+ 1 g 0 0.5 0.5 0.0109(2) 1. 0
Mn5 Mn3+ 2 i 0.18943(9) 0.25233(9) 0.78294(6) 0.0116(2) 1. 0
Na1 Na1+ 2 i 0.2900(3) 0.7634(3) 0.2545(2) 0.0194(4) 1. 0
F1 F1- 2 i 0.5883(4) 0.2322(3) -.0142(3) 0.0205(6) 1. 0
F2 F1- 2 i 0.2778(4) 0.4446(4) -.0807(3) 0.0216(6) 1. 0
F3 F1- 2 i 0.2542(4) 0.0684(4) 0.8975(3) 0.0230(6) 1. 0
F4 F1- 2 i 0.0560(5) 0.0558(4) 0.6714(3) 0.0292(7) 1. 0
F5 F1- 2 i -.0518(4) 0.7315(3) 0.5649(3) 0.0188(6) 1. 0
F6 F1- 2 i 0.1228(5) 0.4462(4) 0.6776(3) 0.0293(7) 1. 0
F7 F1- 2 i 0.3807(4) 0.4650(4) 0.1604(3) 0.0214(6) 1. 0
F8 F1- 2 i 0.3687(4) 0.0497(4) 0.1554(3) 0.0200(6) 1. 0
F9 F1- 2 i 0.2453(4) -.0478(4) 0.4551(3) 0.0248(6) 1. 0
F10 F1- 2 i 0.2297(4) 0.5678(4) 0.4317(3) 0.0218(6) 1. 0
F11 F1- 2 i 0.4088(4) 0.2306(4) 0.6868(3) 0.0260(7) 1. 0
F12 F1- 2 i -.0379(4) 0.2737(5) 0.8707(3) 0.0281(7) 1. 0
#End of TTdata_83871-ICSD