
#(C) 2019 by FIZ Karlsruhe - Leibniz Institute for Information Infrastructure.  All rights reserved.
data_83963-ICSD
_database_code_ICSD 83963
_audit_creation_date 1999-01-19
_chemical_name_systematic 'Disodium hexaamidostannate'
_chemical_formula_structural 'Na2 (Sn (N H2)6)'
_chemical_formula_sum 'H12 N6 Na2 Sn1'
_chemical_name_structure_type K2Sn(NH2)6
_exptl_crystal_density_diffrn 2.28
_publ_section_title

;
Synthesis and crystal structure determination of Na2 (Sn (N H2)6) and Na2 (Sn
(N D2)6) by X-ray and neutron diffraction
;
loop_
_citation_id
_citation_journal_full
_citation_year
_citation_journal_volume
_citation_page_first
_citation_page_last
_citation_journal_id_ASTM
primary 'Journal of Alloys and Compounds' 1997 255 149 154 JALCEU
loop_
_publ_author_name
'Flacke, F.'
'Kockelmann, W.'
'Jacobs, H.'
_cell_length_a 5.982(1)
_cell_length_b 5.982(1)
_cell_length_c 18.405(6)
_cell_angle_alpha 90.
_cell_angle_beta 90.
_cell_angle_gamma 120.
_cell_volume 570.37
_cell_formula_units_Z 3
_symmetry_space_group_name_H-M 'R -3 H'
_symmetry_Int_Tables_number 148
_refine_ls_R_factor_all 0.025
loop_
_symmetry_equiv_pos_site_id
_symmetry_equiv_pos_as_xyz
1 'x-y, x, -z'
2 'y, -x+y, -z'
3 '-x, -y, -z'
4 '-x+y, -x, z'
5 '-y, x-y, z'
6 'x, y, z'
7 'x-y+2/3, x+1/3, -z+1/3'
8 'y+2/3, -x+y+1/3, -z+1/3'
9 '-x+2/3, -y+1/3, -z+1/3'
10 '-x+y+2/3, -x+1/3, z+1/3'
11 '-y+2/3, x-y+1/3, z+1/3'
12 'x+2/3, y+1/3, z+1/3'
13 'x-y+1/3, x+2/3, -z+2/3'
14 'y+1/3, -x+y+2/3, -z+2/3'
15 '-x+1/3, -y+2/3, -z+2/3'
16 '-x+y+1/3, -x+2/3, z+2/3'
17 '-y+1/3, x-y+2/3, z+2/3'
18 'x+1/3, y+2/3, z+2/3'
loop_
_atom_type_symbol
_atom_type_oxidation_number
Sn4+ 4
Na1+ 1
N3- -3
H1+ 1
loop_
_atom_site_label
_atom_site_type_symbol
_atom_site_symmetry_multiplicity
_atom_site_Wyckoff_symbol
_atom_site_fract_x
_atom_site_fract_y
_atom_site_fract_z
_atom_site_B_iso_or_equiv
_atom_site_occupancy
_atom_site_attached_hydrogens
Sn1 Sn4+ 3 a 0 0 0 . 1. 0
Na1 Na1+ 6 c 0 0 0.1751(1) . 1. 0
N1 N3- 18 f 0.2923(3) 0.2826(3) 0.0725(1) . 1. 0
H1 H1+ 18 f 0.254(7) 0.401(7) 0.081(2) 1.2(6) 1. 0
H2 H1+ 18 f 0.427(7) 0.370(7) 0.051(2) 1.2(6) 1. 0
loop_
_atom_site_aniso_label
_atom_site_aniso_type_symbol
_atom_site_aniso_U_11
_atom_site_aniso_U_22
_atom_site_aniso_U_33
_atom_site_aniso_U_12
_atom_site_aniso_U_13
_atom_site_aniso_U_23
Sn1 Sn4+ 0.01643(37) 0.01643(7) 0.0108(1) 0.00822(18) 0 0
Na1 Na1+ 0.0323(25) 0.0323(5) 0.0180(7) 0.0161(3) 0 0
N1 N3- 0.0204(36) 0.0194(6) 0.0189(7) 0.0069(4) -.0016(5) -.0005(5)
#End of TTdata_83963-ICSD