
#(C) 2019 by FIZ Karlsruhe - Leibniz Institute for Information Infrastructure.  All rights reserved.
data_84038-ICSD
_database_code_ICSD 84038
_audit_creation_date 1999-01-19
_chemical_name_systematic 'Sodium beryllosilicate *'
_chemical_formula_structural 'Na1.8 (Be0.9 Si1.1 O4)'
_chemical_formula_sum 'Be0.9 Na1.8 O4 Si1.1'
_exptl_crystal_density_diffrn 2.84
_publ_section_title

;
Rietveld refinement of Na1.8 Be0.9 Si1.1 O4; an ionic conductor with a
cristobalite-related structure
;
loop_
_citation_id
_citation_journal_full
_citation_year
_citation_journal_volume
_citation_page_first
_citation_page_last
_citation_journal_id_ASTM
primary 'Solid State Ionics' 1990 44 51 54 SSIOD3
loop_
_publ_author_name
'Frostaeng, S.'
'Grins, J.'
'Nygren, M.'
_cell_length_a 4.9197(9)
_cell_length_b 9.8763(17)
_cell_length_c 13.9222(22)
_cell_angle_alpha 90.
_cell_angle_beta 90.
_cell_angle_gamma 90.
_cell_volume 676.46
_cell_formula_units_Z 8
_symmetry_space_group_name_H-M 'P b c a'
_symmetry_Int_Tables_number 61
_refine_ls_R_factor_all 0.049
loop_
_symmetry_equiv_pos_site_id
_symmetry_equiv_pos_as_xyz
1 'x+1/2, y, -z+1/2'
2 'x, -y+1/2, z+1/2'
3 '-x+1/2, y+1/2, z'
4 '-x, -y, -z'
5 '-x+1/2, -y, z+1/2'
6 '-x, y+1/2, -z+1/2'
7 'x+1/2, -y+1/2, -z'
8 'x, y, z'
loop_
_atom_type_symbol
_atom_type_oxidation_number
Be2+ 2
Si4+ 4
Be2+ 2
Si4+ 4
Na1+ 1
O2- -2
loop_
_atom_site_label
_atom_site_type_symbol
_atom_site_symmetry_multiplicity
_atom_site_Wyckoff_symbol
_atom_site_fract_x
_atom_site_fract_y
_atom_site_fract_z
_atom_site_B_iso_or_equiv
_atom_site_occupancy
_atom_site_attached_hydrogens
Be1 Be2+ 8 c 0.275(2) 0.017(1) 0.1903(8) 0.75 0.45 0
Si1 Si4+ 8 c 0.275(2) 0.017(1) 0.1903(8) 0.75 0.55 0
Be2 Be2+ 8 c 0.757(2) 0.2350(8) 0.9378(8) 0.75 0.45 0
Si2 Si4+ 8 c 0.757(2) 0.2350(8) 0.9378(8) 0.75 0.55 0
Na1 Na1+ 8 c 0.762(2) 0.003(1) 0.0578(8) 2.86 0.9 0
Na2 Na1+ 8 c 0.780(2) 0.2318(8) 0.6869(8) 2.86 0.9 0
O1 O2- 8 c 0.341(2) 0.170(1) 0.1529(6) 0.3 1. 0
O2 O2- 8 c 0.519(2) 0.1947(8) 0.4994(6) 0.3 1. 0
O3 O2- 8 c 0.138(2) 0.088(1) 0.6036(6) 0.3 1. 0
O4 O2- 8 c 0.050(2) 0.0094(8) 0.7863(6) 0.3 1. 0
#End of TTdata_84038-ICSD