
#(C) 2019 by FIZ Karlsruhe - Leibniz Institute for Information Infrastructure.  All rights reserved.
data_84232-ICSD
_database_code_ICSD 84232
_audit_creation_date 1999-01-19
_chemical_name_systematic 'Sodium gallium oxide (1.98/10.67/17) - beta"'
_chemical_formula_structural 'Na1.98 Ga10.673 O17'
_chemical_formula_sum 'Ga10.673 Na1.98 O17'
_chemical_name_structure_type KAl10.67O17
_exptl_crystal_density_diffrn 5.15
_publ_section_title 'Structural properties of Na-beta"-gallate'
loop_
_citation_id
_citation_journal_full
_citation_year
_citation_journal_volume
_citation_page_first
_citation_page_last
_citation_journal_id_ASTM
primary 'Solid State Ionics' 1989 35 223 227 SSIOD3
loop_
_publ_author_name
'Michiue, Y.'
'Watanabe, M.'
'Fujiki, Y.'
_cell_length_a 5.855(1)
_cell_length_b 5.855(1)
_cell_length_c 34.570(10)
_cell_angle_alpha 90.
_cell_angle_beta 90.
_cell_angle_gamma 120.
_cell_volume 1026.32
_cell_formula_units_Z 3
_symmetry_space_group_name_H-M 'R -3 m H'
_symmetry_Int_Tables_number 166
_refine_ls_R_factor_all 0.033
loop_
_symmetry_equiv_pos_site_id
_symmetry_equiv_pos_as_xyz
1 'x-y, -y, -z'
2 '-x, -x+y, -z'
3 'y, x, -z'
4 'x-y, x, -z'
5 'y, -x+y, -z'
6 '-x, -y, -z'
7 '-x+y, y, z'
8 'x, x-y, z'
9 '-y, -x, z'
10 '-x+y, -x, z'
11 '-y, x-y, z'
12 'x, y, z'
13 'x-y+2/3, -y+1/3, -z+1/3'
14 '-x+2/3, -x+y+1/3, -z+1/3'
15 'y+2/3, x+1/3, -z+1/3'
16 'x-y+2/3, x+1/3, -z+1/3'
17 'y+2/3, -x+y+1/3, -z+1/3'
18 '-x+2/3, -y+1/3, -z+1/3'
19 '-x+y+2/3, y+1/3, z+1/3'
20 'x+2/3, x-y+1/3, z+1/3'
21 '-y+2/3, -x+1/3, z+1/3'
22 '-x+y+2/3, -x+1/3, z+1/3'
23 '-y+2/3, x-y+1/3, z+1/3'
24 'x+2/3, y+1/3, z+1/3'
25 'x-y+1/3, -y+2/3, -z+2/3'
26 '-x+1/3, -x+y+2/3, -z+2/3'
27 'y+1/3, x+2/3, -z+2/3'
28 'x-y+1/3, x+2/3, -z+2/3'
29 'y+1/3, -x+y+2/3, -z+2/3'
30 '-x+1/3, -y+2/3, -z+2/3'
31 '-x+y+1/3, y+2/3, z+2/3'
32 'x+1/3, x-y+2/3, z+2/3'
33 '-y+1/3, -x+2/3, z+2/3'
34 '-x+y+1/3, -x+2/3, z+2/3'
35 '-y+1/3, x-y+2/3, z+2/3'
36 'x+1/3, y+2/3, z+2/3'
loop_
_atom_type_symbol
_atom_type_oxidation_number
Ga3+ 3
O2- -2
Na1+ 1
loop_
_atom_site_label
_atom_site_type_symbol
_atom_site_symmetry_multiplicity
_atom_site_Wyckoff_symbol
_atom_site_fract_x
_atom_site_fract_y
_atom_site_fract_z
_atom_site_B_iso_or_equiv
_atom_site_occupancy
_atom_site_attached_hydrogens
Ga1 Ga3+ 18 h 0.16702(6) 0.83298(6) 0.92798(2) 0.58(1) 1. 0
Ga2 Ga3+ 6 c 0 0 0.35010(4) 0.40(3) 0.8367 0
Ga3 Ga3+ 6 c 0 0 0.45035(3) 0.50(2) 1. 0
Ga4 Ga3+ 3 a 0 0 0 0.43(3) 1. 0
O1 O2- 18 h 0.1553(3) 0.8447(3) 0.0348(1) 0.80(4) 1. 0
O2 O2- 18 h 0.1611(4) 0.8389(4) 0.2339(1) 0.95(5) 1. 0
O3 O2- 6 c 0 0 0.2948(2) 1.02(19) 1. 0
O4 O2- 6 c 0 0 0.0983(3) 1.05(18) 1. 0
O5 O2- 18 h 0.0535(45) -.0535(45) 0.5004(40) 2.48(25) 0.1667 0
Na1 Na1+ 6 c 0 0 0.1735(11) 6.840(20) 0.3533 0
Na2 Na1+ 18 h -.0659(68) 0.0659(68) 0.1725(12) 6.68(14) 0.1578 0
Na3 Na1+ 6 c 0 0 0.35010(4) 0.40(3) 0.1633 0
#End of TTdata_84232-ICSD