
#(C) 2019 by FIZ Karlsruhe - Leibniz Institute for Information Infrastructure.  All rights reserved.
data_84518-ICSD
_database_code_ICSD 84518
_audit_creation_date 1999-01-19
_audit_update_record 2003-10-01
_chemical_name_systematic 'Sodium bismuth bis(molybdate(VI))'
_chemical_formula_structural 'Na Bi (Mo O4)2'
_chemical_formula_sum 'Bi1 Mo2 Na1 O8'
_chemical_name_structure_type AgBi(CrO4)2
_exptl_crystal_density_diffrn 5.71
_cell_measurement_temperature 298.
_publ_section_title
'Structure and vibrational properties of tetragonal scheelite Na Bi (Mo O4)2'
loop_
_citation_id
_citation_journal_full
_citation_year
_citation_journal_volume
_citation_page_first
_citation_page_last
_citation_journal_id_ASTM
primary 'Journal of Raman Spectroscopy' 1997 28 953 963 JRSPAF
loop_
_publ_author_name
'Hanuza, J.'
'Haznar, A.'
'Maczka, M.'
'Pietraszko, A.'
'Lemiec, A.'
'van der Maas, J.H.'
'Lutz, E.T.G.'
_cell_length_a 5.267(1)
_cell_length_b 5.267(1)
_cell_length_c 11.565(2)
_cell_angle_alpha 90.
_cell_angle_beta 90.
_cell_angle_gamma 90.
_cell_volume 320.83
_cell_formula_units_Z 2
_symmetry_space_group_name_H-M 'I -4'
_symmetry_Int_Tables_number 82
_refine_ls_R_factor_all 0.036
loop_
_symmetry_equiv_pos_site_id
_symmetry_equiv_pos_as_xyz
1 '-y, x, -z'
2 'y, -x, -z'
3 '-x, -y, z'
4 'x, y, z'
5 '-y+1/2, x+1/2, -z+1/2'
6 'y+1/2, -x+1/2, -z+1/2'
7 '-x+1/2, -y+1/2, z+1/2'
8 'x+1/2, y+1/2, z+1/2'
loop_
_atom_type_symbol
_atom_type_oxidation_number
Mo6+ 6
Bi3+ 3
O2- -2
Na1+ 1
Bi3+ 3
Na1+ 1
O2- -2
loop_
_atom_site_label
_atom_site_type_symbol
_atom_site_symmetry_multiplicity
_atom_site_Wyckoff_symbol
_atom_site_fract_x
_atom_site_fract_y
_atom_site_fract_z
_atom_site_B_iso_or_equiv
_atom_site_occupancy
_atom_site_attached_hydrogens
Mo1 Mo6+ 2 d 0.5 0 0.25 . 1. 0
Mo2 Mo6+ 2 a 0 0 0 . 1. 0
Bi1 Bi3+ 2 c 0 0.5 0.25 . 0.55 0
O1 O2- 8 g 0.3516(17) 0.2362(22) 0.1659(9) . 1. 0
Na1 Na1+ 2 c 0 0.5 0.25 . 0.45 0
Bi2 Bi3+ 2 b 0.5 0.5 0 . 0.45 0
Na2 Na1+ 2 b 0.5 0.5 0 . 0.55 0
O2 O2- 8 g 0.8498(17) 0.2451(16) 0.0828(5) . 1. 0
loop_
_atom_site_aniso_label
_atom_site_aniso_type_symbol
_atom_site_aniso_U_11
_atom_site_aniso_U_22
_atom_site_aniso_U_33
_atom_site_aniso_U_12
_atom_site_aniso_U_13
_atom_site_aniso_U_23
Mo1 Mo6+ 0.004(1) 0.004(1) 0.005(1) 0 0 0
Mo2 Mo6+ 0.014(1) 0.014(1) 0.020(1) 0 0 0
Bi1 Bi3+ 0.018(1) 0.018(1) 0.025(1) 0 0 0
O1 O2- 0.013(3) 0.026(4) 0.034(4) 0.008(4) 0.004(3) 0.008(3)
Na1 Na1+ 0.018(1) 0.018(1) 0.025(1) 0 0 0
Bi2 Bi3+ 0.009(1) 0.009(1) 0.018(1) 0 0 0
Na2 Na1+ 0.009(1) 0.009(1) 0.018(1) 0 0 0
O2 O2- 0.019(3) 0.014(2) 0.009(1) -0.002(2) 0.002(2) -0.003(2)
#End of TTdata_84518-ICSD