
#(C) 2019 by FIZ Karlsruhe - Leibniz Institute for Information Infrastructure.  All rights reserved.
data_84564-ICSD
_database_code_ICSD 84564
_audit_creation_date 1999-01-19
_audit_update_record 2014-08-01
_chemical_name_systematic 'Sodium magnesium silicon oxide (1.74/0.87/1.14/4)'
_chemical_formula_structural 'Na1.74 (Mg0.865 Si1.135 O4)'
_chemical_formula_sum 'Mg0.865 Na1.74 O4 Si1.135'
_chemical_name_structure_type Na2-x(Mg,Si)2O4
_exptl_crystal_density_diffrn 2.64
_publ_section_title

;
A modulation wave approach to the structural characterization of three new
cristobalite - related sodium magnesiosilicates
;
loop_
_citation_id
_citation_journal_full
_citation_year
_citation_journal_volume
_citation_page_first
_citation_page_last
_citation_journal_id_ASTM
primary 'Acta Crystallographica, Section B: Structural Science' 1997 53 203 220
ASBSDK
loop_
_publ_author_name
'Withers, R.L.'
'Lobo, C.'
'Thompson, J.G.'
'Schmid, S.'
'Stranger, R.'
_cell_length_a 10.487(7)
_cell_length_b 14.351(4)
_cell_length_c 5.243(6)
_cell_angle_alpha 90.
_cell_angle_beta 90.
_cell_angle_gamma 90.
_cell_volume 789.07
_cell_formula_units_Z 8
_symmetry_space_group_name_H-M 'P b c a'
_symmetry_Int_Tables_number 61
_refine_ls_R_factor_all 0.021
loop_
_symmetry_equiv_pos_site_id
_symmetry_equiv_pos_as_xyz
1 'x+1/2, y, -z+1/2'
2 'x, -y+1/2, z+1/2'
3 '-x+1/2, y+1/2, z'
4 '-x, -y, -z'
5 '-x+1/2, -y, z+1/2'
6 '-x, y+1/2, -z+1/2'
7 'x+1/2, -y+1/2, -z'
8 'x, y, z'
loop_
_atom_type_symbol
_atom_type_oxidation_number
Si4+ 4
Mg2+ 2
Si4+ 4
Mg2+ 2
Na1+ 1
O2- -2
loop_
_atom_site_label
_atom_site_type_symbol
_atom_site_symmetry_multiplicity
_atom_site_Wyckoff_symbol
_atom_site_fract_x
_atom_site_fract_y
_atom_site_fract_z
_atom_site_B_iso_or_equiv
_atom_site_occupancy
_atom_site_attached_hydrogens
Si1 Si4+ 8 c 0.980(1) 0.813(1) 0.690(2) 0.031(2) 0.5675 0
Mg1 Mg2+ 8 c 0.980(1) 0.813(1) 0.690(2) 0.031(2) 0.4325 0
Si2 Si4+ 8 c 0.274(1) 0.060(2) 0.289(1) 0.031(3) 0.5675 0
Mg2 Mg2+ 8 c 0.274(1) 0.060(2) 0.289(1) 0.031(3) 0.4325 0
Na1 Na1+ 8 c 0.505(4) 0.058(2) 0.698(7) 0.041(4) 0.435 0
Na2 Na1+ 8 c 0.479(3) 0.049(2) 0.791(7) 0.041(4) 0.435 0
Na3 Na1+ 8 c 0.744(2) 0.306(2) 0.170(5) 0.041(4) 0.435 0
Na4 Na1+ 8 c 0.788(2) 0.326(2) 0.311(5) 0.041(4) 0.435 0
O1 O2- 8 c 0.070(1) 0.907(1) 0.738(3) 0.054(3) 1. 0
O2 O2- 8 c 0.026(1) 0.786(1) 0.367(3) 0.054(3) 1. 0
O3 O2- 8 c 0.237(1) 0.956(1) 0.129(3) 0.054(3) 1. 0
O4 O2- 8 c 0.818(1) 0.840(1) 0.809(2) 0.054(3) 1. 0
#End of TTdata_84564-ICSD