
#(C) 2019 by FIZ Karlsruhe - Leibniz Institute for Information Infrastructure.  All rights reserved.
data_84565-ICSD
_database_code_ICSD 84565
_audit_creation_date 1999-01-19
_chemical_name_systematic 'Sodium magnesium silicon oxide (1.8/0.9/1.1/4)'
_chemical_formula_structural 'Na1.8 (Mg0.9 Si1.1 O4)'
_chemical_formula_sum 'Mg0.9 Na1.8 O4 Si1.1'
_chemical_name_structure_type LiAlO2-gamma
_exptl_crystal_density_diffrn 2.61
_publ_section_title

;
A modulation wave approach to the structural characterization of three new
cristobalite - related sodium magnesiosilicates
;
loop_
_citation_id
_citation_journal_full
_citation_year
_citation_journal_volume
_citation_page_first
_citation_page_last
_citation_journal_id_ASTM
primary 'Acta Crystallographica, Section B: Structural Science' 1997 53 203 220
ASBSDK
loop_
_publ_author_name
'Withers, R.L.'
'Lobo, C.'
'Thompson, J.G.'
'Schmid, S.'
'Stranger, R.'
_cell_length_a 5.330(6)
_cell_length_b 5.330(6)
_cell_length_c 7.086(5)
_cell_angle_alpha 90.
_cell_angle_beta 90.
_cell_angle_gamma 90.
_cell_volume 201.31
_cell_formula_units_Z 2
_symmetry_space_group_name_H-M 'P 41 21 2'
_symmetry_Int_Tables_number 92
_refine_ls_R_factor_all 0.018
loop_
_symmetry_equiv_pos_site_id
_symmetry_equiv_pos_as_xyz
1 'x+1/2, -y+1/2, -z+3/4'
2 '-x+1/2, y+1/2, -z+1/4'
3 '-y, -x, -z+1/2'
4 'y, x, -z'
5 'y+1/2, -x+1/2, z+3/4'
6 '-y+1/2, x+1/2, z+1/4'
7 '-x, -y, z+1/2'
8 'x, y, z'
loop_
_atom_type_symbol
_atom_type_oxidation_number
Si4+ 4
Mg2+ 2
Na1+ 1
O2- -2
loop_
_atom_site_label
_atom_site_type_symbol
_atom_site_symmetry_multiplicity
_atom_site_Wyckoff_symbol
_atom_site_fract_x
_atom_site_fract_y
_atom_site_fract_z
_atom_site_B_iso_or_equiv
_atom_site_occupancy
_atom_site_attached_hydrogens
Si1 Si4+ 4 a 0.304(1) 0.304(1) 0 0.038(4) 0.55 0
Mg1 Mg2+ 4 a 0.304(1) 0.304(1) 0 0.038(4) 0.45 0
Na1 Na1+ 4 a 0.287(1) 0.287(1) 0.5 0.075(5) 0.9 0
O1 O2- 8 b 0.234(2) 0.126(1) 0.197(1) 0.046(5) 1. 0
#End of TTdata_84565-ICSD