
#(C) 2019 by FIZ Karlsruhe - Leibniz Institute for Information Infrastructure.  All rights reserved.
data_84703-ICSD
_database_code_ICSD 84703
_audit_creation_date 1999-01-19
_chemical_name_systematic
'Dilithium sodium bis(oxomolybdenum(V)) tris(phosphate(V))'
_chemical_formula_structural 'Li2 Na (Mo O)2 (P O4)3'
_chemical_formula_sum 'Li2 Mo2 Na1 O14 P3'
_exptl_crystal_density_diffrn 3.37
_cell_measurement_temperature 294.
_publ_section_title

;
A Mo(V) monophosphate with an original tridimensional framework: Li2 Na (Mo
O)2 (P O4)3
;
loop_
_citation_id
_citation_journal_full
_citation_year
_citation_journal_volume
_citation_page_first
_citation_page_last
_citation_journal_id_ASTM
primary 'Journal of Solid State Chemistry' 1997 129 298 302 JSSCBI
loop_
_publ_author_name
'Ledain, S.'
'Leclaire, A.'
'Borel, M.M.'
'Raveau, B.'
_cell_length_a 15.668(1)
_cell_length_b 8.135(1)
_cell_length_c 17.7470(20)
_cell_angle_alpha 90.
_cell_angle_beta 107.994(7)
_cell_angle_gamma 90.
_cell_volume 2151.38
_cell_formula_units_Z 8
_symmetry_space_group_name_H-M 'C 1 2/c 1'
_symmetry_Int_Tables_number 15
_refine_ls_R_factor_all 0.034
loop_
_symmetry_equiv_pos_site_id
_symmetry_equiv_pos_as_xyz
1 'x, -y, z+1/2'
2 '-x, -y, -z'
3 '-x, y, -z+1/2'
4 'x, y, z'
5 'x+1/2, -y+1/2, z+1/2'
6 '-x+1/2, -y+1/2, -z'
7 '-x+1/2, y+1/2, -z+1/2'
8 'x+1/2, y+1/2, z'
loop_
_atom_type_symbol
_atom_type_oxidation_number
Mo5+ 5
P5+ 5
Li1+ 1
Na1+ 1
O2- -2
loop_
_atom_site_label
_atom_site_type_symbol
_atom_site_symmetry_multiplicity
_atom_site_Wyckoff_symbol
_atom_site_fract_x
_atom_site_fract_y
_atom_site_fract_z
_atom_site_B_iso_or_equiv
_atom_site_occupancy
_atom_site_attached_hydrogens
Mo1 Mo5+ 8 f 0.16963(3) 0.26173(7) 0.84046(3) 0.416(8) 1. 0
Mo2 Mo5+ 8 f 0.92815(3) 0.22894(7) 0.93942(3) 0.47(2) 1. 0
P1 P5+ 8 f 0.1394(1) 0.1133(2) 0.01185(9) 0.47(3) 1. 0
P2 P5+ 8 f -.0395(1) 0.4492(2) 0.1108(1) 0.50(3) 1. 0
P3 P5+ 8 f 0.2461(1) 0.6024(2) 0.19354(9) 0.52(3) 1. 0
Li1 Li1+ 8 f 0.108(1) 0.185(2) 0.1452(9) 2.5(3) 1. 0
Li2 Li1+ 8 f 0.1201(8) 0.397(2) 0.2583(7) 1.1(2) 1. 0
Na1 Na1+ 4 d 0.25 0.25 0.5 2.3(2) 1. 0
Na2 Na1+ 4 e 0 0.0981(5) 0.25 2.2(2) 1. 0
O1 O2- 8 f 0.0812(3) 0.1485(6) 0.7944(3) 1.3(2) 1. 0
O2 O2- 8 f 0.2954(3) 0.3655(5) -.0948(2) 0.72(8) 1. 0
O3 O2- 8 f 0.1720(3) 0.1899(6) -.0517(3) 1.12(8) 1. 0
O4 O2- 8 f 0.1079(3) 0.4770(5) 0.8509(3) 0.72(8) 1. 0
O5 O2- 8 f 0.2555(3) 0.0809(6) 0.8291(3) 1.04(8) 1. 0
O6 O2- 8 f 0.1852(3) 0.3896(6) 0.7482(2) 0.88(8) 1. 0
O7 O2- 8 f -.0648(3) 0.0783(5) 0.8769(3) 1.0(2) 1. 0
O8 O2- 8 f -.0902(3) 0.3849(5) 0.0289(3) 0.88(8) 1. 0
O9 O2- 8 f 0.8753(3) 0.0727(5) 0.0055(3) 0.80(8) 1. 0
O10 O2- 8 f -.0268(3) 0.4153(6) 0.8940(3) 1.1(2) 1. 0
O11 O2- 8 f 0.7988(3) 0.2963(5) 0.8826(2) 0.72(8) 1. 0
O12 O2- 8 f 0.0524(3) 0.1949(5) 0.0165(3) 0.80(8) 1. 0
O13 O2- 8 f 0.0133(3) 0.3189(5) 0.1665(2) 0.80(8) 1. 0
O14 O2- 8 f 0.3385(3) 0.6700(5) 0.2340(3) 0.80(8) 1. 0
#End of TTdata_84703-ICSD