
#(C) 2019 by FIZ Karlsruhe - Leibniz Institute for Information Infrastructure.  All rights reserved.
data_84942-ICSD
_database_code_ICSD 84942
_audit_creation_date 1999-01-19
_chemical_name_systematic 'Sodium catena-molybdoarsenate(V)'
_chemical_formula_structural 'Na (Mo As O6)'
_chemical_formula_sum 'As1 Mo1 Na1 O6'
_exptl_crystal_density_diffrn 3.93
_publ_section_title

;
Preparation et structure cristalline d'un nouveau materiau non
centrosymetrique Na Mo O2 As O4
;
loop_
_citation_id
_citation_journal_full
_citation_year
_citation_journal_volume
_citation_page_first
_citation_page_last
_citation_journal_id_ASTM
primary 'Journal of Solid State Chemistry' 1997 133 386 390 JSSCBI
loop_
_publ_author_name
'Zid, M.F.'
'Driss, A.'
'Jouini, T.'
_cell_length_a 14.771(3)
_cell_length_b 6.566(2)
_cell_length_c 10.101(1)
_cell_angle_alpha 90.
_cell_angle_beta 90.
_cell_angle_gamma 90.
_cell_volume 979.66
_cell_formula_units_Z 8
_symmetry_space_group_name_H-M 'P c a 21'
_symmetry_Int_Tables_number 29
_refine_ls_R_factor_all 0.029
loop_
_symmetry_equiv_pos_site_id
_symmetry_equiv_pos_as_xyz
1 'x+1/2, -y, z'
2 '-x+1/2, y, z+1/2'
3 '-x, -y, z+1/2'
4 'x, y, z'
loop_
_atom_type_symbol
_atom_type_oxidation_number
Mo6+ 6
As5+ 5
Na1+ 1
O2- -2
loop_
_atom_site_label
_atom_site_type_symbol
_atom_site_symmetry_multiplicity
_atom_site_Wyckoff_symbol
_atom_site_fract_x
_atom_site_fract_y
_atom_site_fract_z
_atom_site_B_iso_or_equiv
_atom_site_occupancy
_atom_site_attached_hydrogens
Mo1 Mo6+ 4 a 0.1508(1) -.0094(1) 0 0.0088(3) 1. 0
Mo2 Mo6+ 4 a 0.0995(1) 0.4886(1) 0.6478(1) 0.0083(3) 1. 0
As1 As5+ 4 a 0.1431(1) -.0120(2) 0.6587(1) 0.0065(4) 1. 0
As2 As5+ 4 a 0.1065(1) 0.4936(1) -.0195(1) 0.0087(5) 1. 0
Na1 Na1+ 4 a 0.1815(2) 0.7292(5) 0.3360(9) 0.0282(8) 1. 0
Na2 Na1+ 4 a 0.0653(3) 0.2382(5) 0.3105(10) 0.0289(8) 1. 0
O1 O2- 4 a 0.1258(7) -.0153(10) 0.1634(11) 0.020(2) 1. 0
O2 O2- 4 a 0.0461(5) -.0234(9) -.0627(12) 0.015(2) 1. 0
O3 O2- 4 a 0.1722(4) 0.2849(10) -.0151(9) 0.012(2) 1. 0
O4 O2- 4 a 0.1795(5) 0.6902(10) -.0133(9) 0.013(2) 1. 0
O5 O2- 4 a 0.2007(6) -.0120(8) 0.5234(16) 0.010(2) 1. 0
O6 O2- 4 a 0.2072(7) -.0196(9) 0.8019(14) 0.014(2) 1. 0
O7 O2- 4 a 0.2069(6) 0.5099(9) 0.7175(12) 0.019(2) 1. 0
O8 O2- 4 a 0.1208(6) 0.4844(9) 0.4798(11) 0.016(2) 1. 0
O9 O2- 4 a 0.0749(5) 0.1957(10) 0.6646(11) 0.018(2) 1. 0
O10 O2- 4 a 0.0693(4) 0.7884(9) 0.6568(11) 0.014(2) 1. 0
O11 O2- 4 a 0.0428(6) 0.5003(7) 0.1245(15) 0.012(2) 1. 0
O12 O2- 4 a 0.0446(6) 0.4996(6) 0.8503(13) 0.010(2) 1. 0
#End of TTdata_84942-ICSD