
#(C) 2019 by FIZ Karlsruhe - Leibniz Institute for Information Infrastructure.  All rights reserved.
data_85052-ICSD
_database_code_ICSD 85052
_audit_creation_date 1999-06-02
_audit_update_record 2006-04-01
_chemical_name_systematic 'Sodium niobium oxide (1/10/18)'
_chemical_formula_structural 'Na Nb10 O18'
_chemical_formula_sum 'Na1 Nb10 O18'
_exptl_crystal_density_diffrn 5.85
_publ_section_title 'Na Nb10 O18 - ein neues Oxoniobat mit (Nb6 O12)-Clustern'
loop_
_citation_id
_citation_journal_full
_citation_year
_citation_journal_volume
_citation_page_first
_citation_page_last
_citation_journal_id_ASTM
primary 'Zeitschrift fuer Anorganische und Allgemeine Chemie (1950) (DE)' 1989
572 7 17 ZAACAB
loop_
_publ_author_name
'Koehler, J.'
'Simon, A.'
_cell_length_a 7.849(5)
_cell_length_b 9.316(4)
_cell_length_c 10.281(3)
_cell_angle_alpha 90.
_cell_angle_beta 110.53(4)
_cell_angle_gamma 90.
_cell_volume 704.01
_cell_formula_units_Z 2
_symmetry_space_group_name_H-M 'P 1 21/c 1'
_symmetry_Int_Tables_number 14
_refine_ls_R_factor_all 0.028
loop_
_symmetry_equiv_pos_site_id
_symmetry_equiv_pos_as_xyz
1 'x, -y+1/2, z+1/2'
2 '-x, -y, -z'
3 '-x, y+1/2, -z+1/2'
4 'x, y, z'
loop_
_atom_type_symbol
_atom_type_oxidation_number
Na1+ 1
Nb3+ 3.5
O2- -2
loop_
_atom_site_label
_atom_site_type_symbol
_atom_site_symmetry_multiplicity
_atom_site_Wyckoff_symbol
_atom_site_fract_x
_atom_site_fract_y
_atom_site_fract_z
_atom_site_B_iso_or_equiv
_atom_site_occupancy
_atom_site_attached_hydrogens
Na1 Na1+ 2 a 0 0 0 . 1. 0
Nb1 Nb3+ 4 e 0.6040(1) 0.1302(1) 0.0597(1) . 1. 0
Nb2 Nb3+ 4 e 0.3959(1) 0.1132(1) 0.2690(1) . 1. 0
Nb3 Nb3+ 4 e 0.1975(1) 0.1263(1) 0.4812(1) . 1. 0
Nb4 Nb3+ 4 e 0.0041(1) 0.1163(1) 0.6692(1) . 1. 0
Nb5 Nb3+ 4 e 0.8208(1) 0.1300(1) 0.3769(1) . 1. 0
O1 O2- 4 e 0.4172(5) 0.2424(4) 0.4310(4) . 1. 0
O2 O2- 4 e 0.8043(5) 0.2469(4) 0.0388(4) . 1. 0
O3 O2- 4 e 0.0120(5) 0.2616(5) 0.3503(2) . 1. 0
O4 O2- 4 e 0.5999(5) 0.0034(4) 0.3898(4) . 1. 0
O5 O2- 4 e 0.6034(6) 0.9938(4) 0.9042(4) . 1. 0
O6 O2- 4 e 0.7998(5) 0.0131(4) 0.1960(4) . 1. 0
O7 O2- 4 e 0.7984(5) 0.9945(4) 0.6968(4) . 1. 0
O8 O2- 4 e 0.5871(5) 0.2356(4) 0.2236(4) . 1. 0
O9 O2- 4 e 0.2041(5) 0.2536(5) 0.6466(4) . 1. 0
loop_
_atom_site_aniso_label
_atom_site_aniso_type_symbol
_atom_site_aniso_U_11
_atom_site_aniso_U_22
_atom_site_aniso_U_33
_atom_site_aniso_U_12
_atom_site_aniso_U_13
_atom_site_aniso_U_23
Na1 Na1+ 0.0465(18) 0.0572(19) 0.0430(18) -.0067(18) 0.0066(16) 0.006(18)
Nb1 Nb3+ 0.0142(3) 0.0164(3) 0.0092(2) 0.0051(2) 0.0040(2) 0.0000(2)
Nb2 Nb3+ 0.0092(2) 0.0125(3) 0.0100(2) 0.0004(2) 0.0028(2) 0.0003(2)
Nb3 Nb3+ 0.0091(2) 0.0092(2) 0.0083(2) -.0007(2) 0.0032(2) 0.0004(2)
Nb4 Nb3+ 0.0089(2) 0.0100(2) 0.0076(2) -.0003(2) 0.0032(2) -.0004(2)
Nb5 Nb3+ 0.0087(2) 0.0109(2) 0.0087(2) -.0009(2) 0.0025(2) 0.0009(2)
O1 O2- 0.0124(15) 0.0118(15) 0.0124(15) -.0029(13) 0.0066(13) -.0008(13)
O2 O2- 0.0107(15) 0.0125(14) 0.0132(15) -.0019(13) 0.0034(13) 0.0007(14)
O3 O2- 0.0125(15) 0.0128(15) 0.0115(15) -.0017(13) 0.0040(13) 0.0013(13)
O4 O2- 0.0101(14) 0.0118(15) 0.0113(15) 0.0023(13) 0.0034(12) 0.0016(14)
O5 O2- 0.0230(16) 0.0142(16) 0.0164(16) -.0004(15) 0.0008(14) -.0057(15)
O6 O2- 0.0105(15) 0.0160(15) 0.0084(14) 0.0046(13) 0.0026(12) 0.0002(14)
O7 O2- 0.0113(15) 0.0139(15) 0.0112(15) 0.0002(13) 0.0050(12) -.0030(14)
O8 O2- 0.0097(15) 0.0156(15) 0.0118(15) 0.0030(13) 0.0049(13) 0.0022(14)
O9 O2- 0.0110(15) 0.0117(15) 0.0099(15) -.0018(13) 0.0074(13) -.0033(13)
#End of TTdata_85052-ICSD