
#(C) 2019 by FIZ Karlsruhe - Leibniz Institute for Information Infrastructure.  All rights reserved.
data_85103-ICSD
_database_code_ICSD 85103
_audit_creation_date 1999-06-02
_audit_update_record 2009-02-01
_chemical_name_systematic
'Octadecacalcium trisodium iron(III) tetradecakis(phosphate(V)) - o'
_chemical_formula_structural 'Ca18 Na3 Fe (P O4)14'
_chemical_formula_sum 'Ca18 Fe1 Na3 O56 P14'
_chemical_name_structure_type Ca9MgNa(PO4)7
_exptl_crystal_density_diffrn 3.13
_publ_section_title

;
Redox reactions in ternary calcium, sodium and iron phosphates. I. Crystal
structure of o-(Ca18 Na3 Fe (P O4)14)
;
loop_
_citation_id
_citation_journal_full
_citation_year
_citation_journal_volume
_citation_page_first
_citation_page_last
_citation_journal_id_ASTM
primary Kristallografiya 1997 42 64 76 KRISAJ
loop_
_publ_author_name
'Strunenkova, T.V.'
'Morozov, V.A.'
'Khasanov, S.S.'
'Pokholov, K.V.'
'Zhdanova, A.N.'
'Lazoryak, B.I.'
_cell_length_a 10.3770(2)
_cell_length_b 10.3770(2)
_cell_length_c 37.168(1)
_cell_angle_alpha 90.
_cell_angle_beta 90.
_cell_angle_gamma 120.
_cell_volume 3466.12
_cell_formula_units_Z 3
_symmetry_space_group_name_H-M 'R 3 c H'
_symmetry_Int_Tables_number 161
_refine_ls_R_factor_all 0.027
loop_
_symmetry_equiv_pos_site_id
_symmetry_equiv_pos_as_xyz
1 '-x+y, y, z+1/2'
2 'x, x-y, z+1/2'
3 '-y, -x, z+1/2'
4 '-x+y, -x, z'
5 '-y, x-y, z'
6 'x, y, z'
7 '-x+y+2/3, y+1/3, z+5/6'
8 'x+2/3, x-y+1/3, z+5/6'
9 '-y+2/3, -x+1/3, z+5/6'
10 '-x+y+2/3, -x+1/3, z+1/3'
11 '-y+2/3, x-y+1/3, z+1/3'
12 'x+2/3, y+1/3, z+1/3'
13 '-x+y+1/3, y+2/3, z+1/6'
14 'x+1/3, x-y+2/3, z+1/6'
15 '-y+1/3, -x+2/3, z+1/6'
16 '-x+y+1/3, -x+2/3, z+2/3'
17 '-y+1/3, x-y+2/3, z+2/3'
18 'x+1/3, y+2/3, z+2/3'
loop_
_atom_type_symbol
_atom_type_oxidation_number
Ca2+ 2
Na1+ 1
Ca2+ 2
Fe3+ 3
P5+ 5
O2- -2
loop_
_atom_site_label
_atom_site_type_symbol
_atom_site_symmetry_multiplicity
_atom_site_Wyckoff_symbol
_atom_site_fract_x
_atom_site_fract_y
_atom_site_fract_z
_atom_site_B_iso_or_equiv
_atom_site_occupancy
_atom_site_attached_hydrogens
Ca1 Ca2+ 18 b 0.728(1) 0.862(2) 0.432(1) 0.9(4) 1. 0
Ca2 Ca2+ 18 b 0.618(1) 0.825(2) 0.231(1) 0.7(3) 1. 0
Ca3 Ca2+ 18 b 0.120(1) 0.266(2) 0.324(1) 0.5(2) 0.833 0
Na1 Na1+ 18 b 0.120(1) 0.266(2) 0.324(1) 0.5(2) 0.167 0
Na2 Na1+ 6 a 0 0 0.180(1) 4.1(7) 1. 0
Ca4 Ca2+ 6 a 0 0 0 0.6(3) 0.5 0
Fe1 Fe3+ 6 a 0 0 0 0.6(3) 0.5 0
P1 P5+ 6 a 0 0 0.264(1) 1.5(5) 1. 0
P2 P5+ 18 b 0.687(1) 0.868(2) 0.134(1) 0.8(3) 1. 0
P3 P5+ 18 b 0.656(2) 0.846(2) 0.030(1) 1.4(4) 1. 0
O1 O2- 6 a 0 0 0.304(1) 1.3(8) 1. 0
O2 O2- 18 b 0.007(3) 0.866(3) 0.255(1) 1.7(4) 1. 0
O3 O2- 18 b 0.760(3) 0.927(3) 0.173(1) 2.3(8) 1. 0
O4 O2- 18 b 0.754(4) 0.766(4) 0.123(1) 1.8(3) 1. 0
O5 O2- 18 b 0.724(4) 0.005(3) 0.113(1) 1.9(4) 1. 0
O6 O2- 18 b 0.523(3) 0.763(4) 0.131(1) 1.7(6) 1. 0
O7 O2- 18 b 0.610(3) 0.966(3) 0.044(1) 1.5(8) 1. 0
O8 O2- 18 b 0.578(4) 0.692(4) 0.050(1) 1.3(7) 1. 0
O9 O2- 18 b 0.823(4) 0.926(4) 0.041(1) 1.5(8) 1. 0
O10 O2- 18 b 0.629(3) 0.830(4) 0.991(2) 2.3(6) 1. 0
#End of TTdata_85103-ICSD