
#(C) 2019 by FIZ Karlsruhe - Leibniz Institute for Information Infrastructure.  All rights reserved.
data_85136-ICSD
_database_code_ICSD 85136
_audit_creation_date 1999-06-02
_chemical_name_systematic 'Sodium silver tellurium sulfide (1.5/0.5/1/3)'
_chemical_formula_structural 'Na (Na0.5 Ag0.5) Te S3'
_chemical_formula_sum 'Ag0.5 Na1.5 S3 Te1'
_chemical_name_structure_type Ag2SeO3
_exptl_crystal_density_diffrn 3.55
_cell_measurement_temperature 300.
_publ_section_title

;
Crystal structure of Ag2 Te S3 and Na (Na1-x Agx) Te S3 (x = 0.5) and the
geometry of Te(IV) S3 polyhedra
;
loop_
_citation_id
_citation_journal_full
_citation_year
_citation_journal_volume
_citation_page_first
_citation_page_last
_citation_journal_id_ASTM
primary 'Monatshefte fuer Chemie' 1997 128 157 163 MOCMB7
loop_
_publ_author_name
'Pertlik, F.'
_cell_length_a 5.761(9)
_cell_length_b 12.171(8)
_cell_length_c 8.342(4)
_cell_angle_alpha 90.
_cell_angle_beta 92.26(6)
_cell_angle_gamma 90.
_cell_volume 584.46
_cell_formula_units_Z 4
_symmetry_space_group_name_H-M 'P 1 21/c 1'
_symmetry_Int_Tables_number 14
_refine_ls_R_factor_all 0.03
loop_
_symmetry_equiv_pos_site_id
_symmetry_equiv_pos_as_xyz
1 'x, -y+1/2, z+1/2'
2 '-x, -y, -z'
3 '-x, y+1/2, -z+1/2'
4 'x, y, z'
loop_
_atom_type_symbol
_atom_type_oxidation_number
Te4+ 4
Na1+ 1
Ag1+ 1
S2- -2
loop_
_atom_site_label
_atom_site_type_symbol
_atom_site_symmetry_multiplicity
_atom_site_Wyckoff_symbol
_atom_site_fract_x
_atom_site_fract_y
_atom_site_fract_z
_atom_site_B_iso_or_equiv
_atom_site_occupancy
_atom_site_attached_hydrogens
Te1 Te4+ 4 e 0.21208(6) 0.08967(3) 0.18276(4) . 1. 0
Na1 Na1+ 4 e 0.2549(4) 0.0811(2) 0.6369(3) . 1. 0
Na2 Na1+ 4 e 0.7436(2) 0.2687(1) 0.3731(2) . 0.5 0
Ag1 Ag1+ 4 e 0.7436(2) 0.2687(1) 0.3731(2) . 0.5 0
S1 S2- 4 e 0.2462(3) 0.9360(1) 0.3532(2) . 1. 0
S2 S2- 4 e 0.8059(2) 0.0981(2) 0.1389(2) . 1. 0
S3 S2- 4 e 0.2671(3) 0.2346(1) 0.3692(2) . 1. 0
loop_
_atom_site_aniso_label
_atom_site_aniso_type_symbol
_atom_site_aniso_U_11
_atom_site_aniso_U_22
_atom_site_aniso_U_33
_atom_site_aniso_U_12
_atom_site_aniso_U_13
_atom_site_aniso_U_23
Te1 Te4+ 0.0189(1) 0.0214(1) 0.0240(1) 0.0003(1) 0.0017(1) -.0002(1)
Na1 Na1+ 0.0248(11) 0.0264(12) 0.0341(12) -.0001(8) 0.0018(7) 0.0003(4)
Na2 Na1+ 0.0331(7) 0.0332(7) 0.0332(7) -.0045(4) 0.0033(4) -.0024(2)
Ag1 Ag1+ 0.0331(7) 0.0332(7) 0.0332(7) -.0045(4) 0.0033(4) -.0024(2)
S1 S2- 0.0254(6) 0.0223(7) 0.0300(7) 0.0007(4) 0.0015(4) 0.0006(2)
S2 S2- 0.0216(6) 0.0364(6) 0.0343(7) 0.0007(5) 0.0006(4) 0.0019(3)
S3 S2- 0.0307(7) 0.0225(6) 0.0277(7) -.0005(4) 0.0022(4) -.0006(2)
#End of TTdata_85136-ICSD