
#(C) 2019 by FIZ Karlsruhe - Leibniz Institute for Information Infrastructure.  All rights reserved.
data_854-ICSD
_database_code_ICSD 854
_audit_creation_date 1980-01-01
_audit_update_record 2017-08-01
_chemical_name_systematic 'Sodium catena-dithioarsenate(III)'
_chemical_formula_structural 'Na (As S2)'
_chemical_formula_sum 'As1 Na1 S2'
_chemical_name_structure_type AsNaS2
_exptl_crystal_density_diffrn 2.93
_publ_section_title 'Metadithioarsenite sodique a chaines infinies'
loop_
_citation_id
_citation_journal_full
_citation_year
_citation_journal_volume
_citation_page_first
_citation_page_last
_citation_journal_id_ASTM
primary

;
Acta Crystallographica, Section B: Structural Crystallography and Crystal
Chemistry
; 1977 33 908 910 ACBCAR
loop_
_publ_author_name
'Palazzi, M.'
'Jaulmes, S.'
_cell_length_a 5.859(2)
_cell_length_b 5.569(2)
_cell_length_c 11.291(2)
_cell_angle_alpha 90.
_cell_angle_beta 90.
_cell_angle_gamma 92.95(2)
_cell_volume 367.92
_cell_formula_units_Z 4
_symmetry_space_group_name_H-M 'P 1 1 21/b'
_symmetry_Int_Tables_number 14
_refine_ls_R_factor_all 0.033
loop_
_symmetry_equiv_pos_site_id
_symmetry_equiv_pos_as_xyz
1 'x, y+1/2, -z+1/2'
2 '-x, -y, -z'
3 '-x, -y+1/2, z+1/2'
4 'x, y, z'
loop_
_atom_type_symbol
_atom_type_oxidation_number
As3+ 3
S2- -2
Na1+ 1
loop_
_atom_site_label
_atom_site_type_symbol
_atom_site_symmetry_multiplicity
_atom_site_Wyckoff_symbol
_atom_site_fract_x
_atom_site_fract_y
_atom_site_fract_z
_atom_site_B_iso_or_equiv
_atom_site_occupancy
_atom_site_attached_hydrogens
As1 As3+ 4 e 0.0394(1) 0.2221(1) 0.1416(1) 0.55 1. 0
S1 S2- 4 e 0.4078(3) 0.2247(3) 0.1242(1) 0.55 1. 0
S2 S2- 4 e -.0232(3) 0.6303(3) 0.1607(1) 0.55 1. 0
Na1 Na1+ 4 e 0.4905(5) 0.7313(5) 0.1246(2) 0.55 1. 0
loop_
_atom_site_aniso_label
_atom_site_aniso_type_symbol
_atom_site_aniso_beta_11
_atom_site_aniso_beta_22
_atom_site_aniso_beta_33
_atom_site_aniso_beta_12
_atom_site_aniso_beta_13
_atom_site_aniso_beta_23
As1 As3+ 0.0115(1) 0.0099(1) 0.0026(1) -.0004(1) -.0005(1) -.0004(1)
S1 S2- 0.0121(4) 0.0123(4) 0.0030(1) 0.0016(3) 0.0013(2) 0.00004
S2 S2- 0.0121(4) 0.0107(4) 0.0028(1) 0.0013(3) -.0011(2) 0.00007
Na1 Na1+ 0.0179(8) 0.0167(8) 0.0039(2) 0.0005(3) 0.0016(3) 0.0008(4)
#End of TTdata_854-ICSD