
#(C) 2019 by FIZ Karlsruhe - Leibniz Institute for Information Infrastructure.  All rights reserved.
data_85498-ICSD
_database_code_ICSD 85498
_audit_creation_date 1999-06-02
_chemical_name_systematic 'Sodium lutetium germanate'
_chemical_formula_structural 'Na Lu (Ge O4)'
_chemical_formula_sum 'Ge1 Lu1 Na1 O4'
_chemical_name_structure_type Olivine-Mg2SiO4
_exptl_crystal_density_diffrn 5.92
_publ_section_title

;
Refinement of Na Gd Ge O4, Na Y Ge O4, and Na Lu Ge O4 single-crystal
structures
;
loop_
_citation_id
_citation_journal_full
_citation_year
_citation_journal_volume
_citation_page_first
_citation_page_last
_citation_journal_id_ASTM
primary 'Physica Status Solidi A: Applied Research' 1986 93 495 502 PSSABA
loop_
_publ_author_name
'Dudka, A.P.'
'Kaminskii, A.A.'
'Simonov, V.I.'
_cell_length_a 11.277(1)
_cell_length_b 6.354(1)
_cell_length_c 5.241(1)
_cell_angle_alpha 90.
_cell_angle_beta 90.
_cell_angle_gamma 90.
_cell_volume 375.54
_cell_formula_units_Z 4
_symmetry_space_group_name_H-M 'P n m a'
_symmetry_Int_Tables_number 62
_refine_ls_R_factor_all 0.019
loop_
_symmetry_equiv_pos_site_id
_symmetry_equiv_pos_as_xyz
1 'x+1/2, y, -z+1/2'
2 'x, -y+1/2, z'
3 '-x+1/2, y+1/2, z+1/2'
4 '-x, -y, -z'
5 '-x+1/2, -y, z+1/2'
6 '-x, y+1/2, -z'
7 'x+1/2, -y+1/2, -z+1/2'
8 'x, y, z'
loop_
_atom_type_symbol
_atom_type_oxidation_number
Na1+ 1
Lu3+ 3
Ge4+ 4
O2- -2
loop_
_atom_site_label
_atom_site_type_symbol
_atom_site_symmetry_multiplicity
_atom_site_Wyckoff_symbol
_atom_site_fract_x
_atom_site_fract_y
_atom_site_fract_z
_atom_site_B_iso_or_equiv
_atom_site_occupancy
_atom_site_attached_hydrogens
Na1 Na1+ 4 a 0 0 0 . 1. 0
Lu1 Lu3+ 4 c 0.27691(1) 0.25 0.99526(3) . 1. 0
Ge1 Ge4+ 4 c 0.09799(3) 0.25 0.55314(7) . 1. 0
O1 O2- 4 c 0.6125(2) 0.25 0.2727(4) . 1. 0
O2 O2- 4 c 0.9541(2) 0.25 0.6696(5) . 1. 0
O3 O2- 8 d 0.1752 0.0410(3) 0.7078(4) . 1. 0
loop_
_atom_site_aniso_label
_atom_site_aniso_type_symbol
_atom_site_aniso_B_11
_atom_site_aniso_B_22
_atom_site_aniso_B_33
_atom_site_aniso_B_12
_atom_site_aniso_B_13
_atom_site_aniso_B_23
Na1 Na1+ 0.3643 0.9716 1.257 -.1361 -.03685 0.03431
Lu1 Lu3+ 0.1997 0.6168 0.8899 0 -.00653 0
Ge1 Ge4+ 0.2033 0.6642 0.8665 0 -.00599 0
O1 O2- 0.2689 0.9141 0.8725 0 -.07149 0
O2 O2- 0.176 1.008 1.128 0 0.06256 0
O3 O2- 0.2702 0.6667 1.096 0.04977 -.05407 -.08337
#End of TTdata_85498-ICSD