
#(C) 2019 by FIZ Karlsruhe - Leibniz Institute for Information Infrastructure.  All rights reserved.
data_85496-ICSD
_database_code_ICSD 85496
_audit_creation_date 1999-06-02
_chemical_name_systematic 'Sodium gadolinium germanate'
_chemical_formula_structural 'Na Gd (Ge O4)'
_chemical_formula_sum 'Gd1 Ge1 Na1 O4'
_chemical_name_structure_type Olivine-Mg2SiO4
_exptl_crystal_density_diffrn 5.27
_publ_section_title

;
Refinement of Na Gd Ge O4, Na Y Ge O4, and Na Lu Ge O4 single-crystal
structures
;
loop_
_citation_id
_citation_journal_full
_citation_year
_citation_journal_volume
_citation_page_first
_citation_page_last
_citation_journal_id_ASTM
primary 'Physica Status Solidi A: Applied Research' 1986 93 495 502 PSSABA
loop_
_publ_author_name
'Dudka, A.P.'
'Kaminskii, A.A.'
'Simonov, V.I.'
_cell_length_a 11.539(3)
_cell_length_b 6.535(2)
_cell_length_c 5.296(1)
_cell_angle_alpha 90.
_cell_angle_beta 90.
_cell_angle_gamma 90.
_cell_volume 399.36
_cell_formula_units_Z 4
_symmetry_space_group_name_H-M 'P n m a'
_symmetry_Int_Tables_number 62
_refine_ls_R_factor_all 0.016
loop_
_symmetry_equiv_pos_site_id
_symmetry_equiv_pos_as_xyz
1 'x+1/2, y, -z+1/2'
2 'x, -y+1/2, z'
3 '-x+1/2, y+1/2, z+1/2'
4 '-x, -y, -z'
5 '-x+1/2, -y, z+1/2'
6 '-x, y+1/2, -z'
7 'x+1/2, -y+1/2, -z+1/2'
8 'x, y, z'
loop_
_atom_type_symbol
_atom_type_oxidation_number
Na1+ 1
Gd3+ 3
Ge4+ 4
O2- -2
loop_
_atom_site_label
_atom_site_type_symbol
_atom_site_symmetry_multiplicity
_atom_site_Wyckoff_symbol
_atom_site_fract_x
_atom_site_fract_y
_atom_site_fract_z
_atom_site_B_iso_or_equiv
_atom_site_occupancy
_atom_site_attached_hydrogens
Na1 Na1+ 4 a 0 0 0 . 1. 0
Gd1 Gd3+ 4 c 0.27860(3) 0.25 0.99897(6) . 1. 0
Ge1 Ge4+ 4 c 0.09609(6) 0.25 0.5587(1) . 1. 0
O1 O2- 4 c 0.6099(5) 0.25 0.2644(9) . 1. 0
O2 O2- 4 c 0.9559(5) 0.25 0.6797(9) . 1. 0
O3 O2- 8 d 0.1715(3) 0.0449(6) 0.7081(6) . 1. 0
loop_
_atom_site_aniso_label
_atom_site_aniso_type_symbol
_atom_site_aniso_B_11
_atom_site_aniso_B_22
_atom_site_aniso_B_33
_atom_site_aniso_B_12
_atom_site_aniso_B_13
_atom_site_aniso_B_23
Na1 Na1+ 0.3998 0.8686 1.368 -.2365 -.02021 0.2277
Gd1 Gd3+ 0.2483 0.5539 0.8823 0 -.02021 0
Ge1 Ge4+ 0.2502 0.6344 0.7919 0 -.01258 0
O1 O2- 0.2842 0.8263 1.09 0 -.225 0
O2 O2- 0.3036 0.7442 1.033 0 0.03318 0
O3 O2- 0.3647 0.6027 1.028 0.1495 -.09345 -.2643
#End of TTdata_85496-ICSD