
#(C) 2019 by FIZ Karlsruhe - Leibniz Institute for Information Infrastructure.  All rights reserved.
data_85568-ICSD
_database_code_ICSD 85568
_audit_creation_date 1999-11-30
_chemical_name_systematic 'Rubidium sodium tecto-alumosilicate *'
_chemical_formula_structural 'Rb71 Na21 Al92 Si100 O384'
_chemical_formula_sum 'Al92 Na21 O384 Rb71 Si100'
_chemical_name_structure_type Faujasite-Fd3--frame
_chemical_name_mineral 'Zeolite X (Rb-exchanged)'
_exptl_crystal_density_diffrn 1.91
_cell_measurement_temperature 294.
_publ_section_title

;
Crystal structure of dehydrated Rb(+)-exchanged zeolite X, Rb71 Na21 Si100
Al92 O384
;
loop_
_citation_id
_citation_journal_full
_citation_year
_citation_journal_volume
_citation_page_first
_citation_page_last
_citation_journal_id_ASTM
primary 'Bulletin of the Korean Chemical Society' 1998 19 98 103 BKCSDE
loop_
_publ_author_name
'Lee, S.H.'
'Kim, Y.'
'Kim, D.-S.'
'Seff, K.'
_cell_length_a 25.0070(30)
_cell_length_b 25.0070(30)
_cell_length_c 25.0070(30)
_cell_angle_alpha 90.
_cell_angle_beta 90.
_cell_angle_gamma 90.
_cell_volume 15638.13
_cell_formula_units_Z 1
_symmetry_space_group_name_H-M 'F d -3 Z'
_symmetry_Int_Tables_number 203
_refine_ls_R_factor_all 0.047
loop_
_symmetry_equiv_pos_site_id
_symmetry_equiv_pos_as_xyz
1 '-z, x+3/4, y+3/4'
2 'z+3/4, x+3/4, -y'
3 'z+3/4, -x, y+3/4'
4 '-z, -x, -y'
5 'y+3/4, -z, x+3/4'
6 '-y, z+3/4, x+3/4'
7 'y+3/4, z+3/4, -x'
8 '-y, -z, -x'
9 'x+3/4, y+3/4, -z'
10 'x+3/4, -y, z+3/4'
11 '-x, y+3/4, z+3/4'
12 '-x, -y, -z'
13 'z, -x+1/4, -y+1/4'
14 '-z+1/4, -x+1/4, y'
15 '-z+1/4, x, -y+1/4'
16 'z, x, y'
17 '-y+1/4, z, -x+1/4'
18 'y, -z+1/4, -x+1/4'
19 '-y+1/4, -z+1/4, x'
20 'y, z, x'
21 '-x+1/4, -y+1/4, z'
22 '-x+1/4, y, -z+1/4'
23 'x, -y+1/4, -z+1/4'
24 'x, y, z'
25 '-z, x+1/4, y+1/4'
26 'z+3/4, x+1/4, -y+1/2'
27 'z+3/4, -x+1/2, y+1/4'
28 '-z, -x+1/2, -y+1/2'
29 'y+3/4, -z+1/2, x+1/4'
30 '-y, z+1/4, x+1/4'
31 'y+3/4, z+1/4, -x+1/2'
32 '-y, -z+1/2, -x+1/2'
33 'x+3/4, y+1/4, -z+1/2'
34 'x+3/4, -y+1/2, z+1/4'
35 '-x, y+1/4, z+1/4'
36 '-x, -y+1/2, -z+1/2'
37 'z, -x+3/4, -y+3/4'
38 '-z+1/4, -x+3/4, y+1/2'
39 '-z+1/4, x+1/2, -y+3/4'
40 'z, x+1/2, y+1/2'
41 '-y+1/4, z+1/2, -x+3/4'
42 'y, -z+3/4, -x+3/4'
43 '-y+1/4, -z+3/4, x+1/2'
44 'y, z+1/2, x+1/2'
45 '-x+1/4, -y+3/4, z+1/2'
46 '-x+1/4, y+1/2, -z+3/4'
47 'x, -y+3/4, -z+3/4'
48 'x, y+1/2, z+1/2'
49 '-z+1/2, x+3/4, y+1/4'
50 'z+1/4, x+3/4, -y+1/2'
51 'z+1/4, -x, y+1/4'
52 '-z+1/2, -x, -y+1/2'
53 'y+1/4, -z, x+1/4'
54 '-y+1/2, z+3/4, x+1/4'
55 'y+1/4, z+3/4, -x+1/2'
56 '-y+1/2, -z, -x+1/2'
57 'x+1/4, y+3/4, -z+1/2'
58 'x+1/4, -y, z+1/4'
59 '-x+1/2, y+3/4, z+1/4'
60 '-x+1/2, -y, -z+1/2'
61 'z+1/2, -x+1/4, -y+3/4'
62 '-z+3/4, -x+1/4, y+1/2'
63 '-z+3/4, x, -y+3/4'
64 'z+1/2, x, y+1/2'
65 '-y+3/4, z, -x+3/4'
66 'y+1/2, -z+1/4, -x+3/4'
67 '-y+3/4, -z+1/4, x+1/2'
68 'y+1/2, z, x+1/2'
69 '-x+3/4, -y+1/4, z+1/2'
70 '-x+3/4, y, -z+3/4'
71 'x+1/2, -y+1/4, -z+3/4'
72 'x+1/2, y, z+1/2'
73 '-z+1/2, x+1/4, y+3/4'
74 'z+1/4, x+1/4, -y'
75 'z+1/4, -x+1/2, y+3/4'
76 '-z+1/2, -x+1/2, -y'
77 'y+1/4, -z+1/2, x+3/4'
78 '-y+1/2, z+1/4, x+3/4'
79 'y+1/4, z+1/4, -x'
80 '-y+1/2, -z+1/2, -x'
81 'x+1/4, y+1/4, -z'
82 'x+1/4, -y+1/2, z+3/4'
83 '-x+1/2, y+1/4, z+3/4'
84 '-x+1/2, -y+1/2, -z'
85 'z+1/2, -x+3/4, -y+1/4'
86 '-z+3/4, -x+3/4, y'
87 '-z+3/4, x+1/2, -y+1/4'
88 'z+1/2, x+1/2, y'
89 '-y+3/4, z+1/2, -x+1/4'
90 'y+1/2, -z+3/4, -x+1/4'
91 '-y+3/4, -z+3/4, x'
92 'y+1/2, z+1/2, x'
93 '-x+3/4, -y+3/4, z'
94 '-x+3/4, y+1/2, -z+1/4'
95 'x+1/2, -y+3/4, -z+1/4'
96 'x+1/2, y+1/2, z'
loop_
_atom_type_symbol
_atom_type_oxidation_number
Si4+ 4
Al3+ 3
Si4+ 4
O2- -2
Rb1+ 1
Na1+ 1
loop_
_atom_site_label
_atom_site_type_symbol
_atom_site_symmetry_multiplicity
_atom_site_Wyckoff_symbol
_atom_site_fract_x
_atom_site_fract_y
_atom_site_fract_z
_atom_site_B_iso_or_equiv
_atom_site_occupancy
_atom_site_attached_hydrogens
Si1 Si4+ 96 g -.0540(2) 0.0343(2) 0.1239(3) . 1. 0
Al1 Al3+ 96 g -.0547(2) 0.1229(3) 0.0360(2) . 0.9583 0
Si2 Si4+ 96 g -.0547(2) 0.1229(3) 0.0360(2) . 0.0417 0
O1 O2- 96 g 0.8920(4) 0.0009(6) 0.1115(5) . 1. 0
O2 O2- 96 g 0.0063(6) -.0056(6) 0.1424(4) . 1. 0
O3 O2- 96 g -.0351(4) 0.0667(5) 0.0704(5) . 1. 0
O4 O2- 96 g -.0683(4) 0.0753(5) 0.1722(5) . 1. 0
Rb1 Rb1+ 16 c 0 0 0 . 0.2812 0
Rb2 Rb1+ 32 e 0.0801(4) 0.0801(4) 0.0801(3) . 0.2812 0
Rb3 Rb1+ 32 e 0.1704(20) 0.1704(20) 0.1704(20) . 0.0781 0
Rb4 Rb1+ 32 e 0.2539(2) 0.2539(2) 0.2539(2) . 0.5625 0
Rb5 Rb1+ 48 f 0.125 0.125 0.4127(2) . 0.6667 0
Rb6 Rb1+ 96 g 0.0510(27) 0.0556(27) 0.4320(22) 0.081(19) 0.0521 0
Na1 Na1+ 16 c 0 0 0 . 0.4375 0
Na2 Na1+ 32 e 0.2268(7) 0.2268(7) 0.2268(7) 0.028(10) 0.4375 0
loop_
_atom_site_aniso_label
_atom_site_aniso_type_symbol
_atom_site_aniso_U_11
_atom_site_aniso_U_22
_atom_site_aniso_U_33
_atom_site_aniso_U_12
_atom_site_aniso_U_13
_atom_site_aniso_U_23
Si1 Si4+ 0.0158(27) 0.0118(26) 0.0041(23) 0.0023(29) 0.0000(43) -.0001(39)
Al1 Al3+ 0.0134(28) 0.0001(24) 0.0071(26) -.0014(42) -.0001(29) -.0033(40)
Si2 Si4+ 0.0134(28) 0.0001(24) 0.0071(26) -.0014(42) -.0001(29) -.0033(40)
O1 O2- 0.0036(79) 0.0553(89) 0.0224(98) 0.0001(73) -.0015(56) -.0142(56)
O2 O2- 0.0182(73) 0.0312(77) 0.0149(81) 0.0180(69) -.0136(71) -.0121(76)
O3 O2- 0.0377(92) 0.0105(81) 0.0004(74) 0.0015(75) 0.0111(75) 0.0020(66)
O4 O2- 0.0063(75) 0.0146(75) 0.0159(73) -.0117(78) -.0047(76) -.0009(60)
Rb1 Rb1+ 0.0321(53) 0.0321(53) 0.0321(53) 0.0103(72) 0.0103(72) 0.0103(72)
Rb2 Rb1+ 0.0717(61) 0.0717(61) 0.0717(61) -.0087(74) -.0087(74) -.0087(74)
Rb3 Rb1+ 0.065(15) 0.065(15) 0.065(15) 0.067(19) 0.067(19) 0.067(19)
Rb4 Rb1+ 0.0355(17) 0.0355(17) 0.0355(17) 0.0088(27) 0.0088(27) 0.0088(27)
Rb5 Rb1+ 0.1151(53) 0.1035(51) 0.0204(31) -.0451(48) 0 0
Na1 Na1+ 0.0321(53) 0.0321(53) 0.0321(53) 0.0103(72) 0.0103(72) 0.0103(72)
#End of TTdata_85568-ICSD