
#(C) 2019 by FIZ Karlsruhe - Leibniz Institute for Information Infrastructure.  All rights reserved.
data_85655-ICSD
_database_code_ICSD 85655
_audit_creation_date 1999-11-30
_chemical_name_systematic 'Sodium titanium oxide (0.99/1/2)'
_chemical_formula_structural 'Na0.99 Ti O2'
_chemical_formula_sum 'Na0.99 O2 Ti1'
_chemical_name_structure_type Delafossite-NaFeO2
_exptl_crystal_density_diffrn 3.92
_cell_measurement_temperature 298.
_publ_section_title 'Synthesis, structure, and magnetic properties of Na Ti O2'
loop_
_citation_id
_citation_journal_full
_citation_year
_citation_journal_volume
_citation_page_first
_citation_page_last
_citation_journal_id_ASTM
primary 'Chemistry of Materials' 1998 10 372 384 CMATEX
loop_
_publ_author_name
'Clarke, S.J.'
'Fowkes, A.J.'
'Harrison, A.'
'Ibberson, R.M.'
'Rosseinsky, M.J.'
_cell_length_a 3.04295(8)
_cell_length_b 3.04295(8)
_cell_length_c 16.2580(4)
_cell_angle_alpha 90.
_cell_angle_beta 90.
_cell_angle_gamma 120.
_cell_volume 130.37
_cell_formula_units_Z 3
_symmetry_space_group_name_H-M 'R -3 m H'
_symmetry_Int_Tables_number 166
_refine_ls_R_factor_all 0.015
loop_
_symmetry_equiv_pos_site_id
_symmetry_equiv_pos_as_xyz
1 'x-y, -y, -z'
2 '-x, -x+y, -z'
3 'y, x, -z'
4 'x-y, x, -z'
5 'y, -x+y, -z'
6 '-x, -y, -z'
7 '-x+y, y, z'
8 'x, x-y, z'
9 '-y, -x, z'
10 '-x+y, -x, z'
11 '-y, x-y, z'
12 'x, y, z'
13 'x-y+2/3, -y+1/3, -z+1/3'
14 '-x+2/3, -x+y+1/3, -z+1/3'
15 'y+2/3, x+1/3, -z+1/3'
16 'x-y+2/3, x+1/3, -z+1/3'
17 'y+2/3, -x+y+1/3, -z+1/3'
18 '-x+2/3, -y+1/3, -z+1/3'
19 '-x+y+2/3, y+1/3, z+1/3'
20 'x+2/3, x-y+1/3, z+1/3'
21 '-y+2/3, -x+1/3, z+1/3'
22 '-x+y+2/3, -x+1/3, z+1/3'
23 '-y+2/3, x-y+1/3, z+1/3'
24 'x+2/3, y+1/3, z+1/3'
25 'x-y+1/3, -y+2/3, -z+2/3'
26 '-x+1/3, -x+y+2/3, -z+2/3'
27 'y+1/3, x+2/3, -z+2/3'
28 'x-y+1/3, x+2/3, -z+2/3'
29 'y+1/3, -x+y+2/3, -z+2/3'
30 '-x+1/3, -y+2/3, -z+2/3'
31 '-x+y+1/3, y+2/3, z+2/3'
32 'x+1/3, x-y+2/3, z+2/3'
33 '-y+1/3, -x+2/3, z+2/3'
34 '-x+y+1/3, -x+2/3, z+2/3'
35 '-y+1/3, x-y+2/3, z+2/3'
36 'x+1/3, y+2/3, z+2/3'
loop_
_atom_type_symbol
_atom_type_oxidation_number
Na1+ 1
Ti3+ 3.01
Na1+ 1
Ti3+ 3.01
O2- -2
loop_
_atom_site_label
_atom_site_type_symbol
_atom_site_symmetry_multiplicity
_atom_site_Wyckoff_symbol
_atom_site_fract_x
_atom_site_fract_y
_atom_site_fract_z
_atom_site_B_iso_or_equiv
_atom_site_occupancy
_atom_site_attached_hydrogens
Na1 Na1+ 3 a 0 0 0 0.021(1) 0.937(28) 0
Ti1 Ti3+ 3 a 0 0 0 0.021(1) 0.053(8) 0
Na2 Na1+ 3 b 0 0 0.5 0.036(2) 0.053(8) 0
Ti2 Ti3+ 3 b 0 0 0.5 0.036(2) 0.947(8) 0
O1 O2- 6 c 0 0 0.2346(2) 0.033(2) 1. 0
#End of TTdata_85655-ICSD