
#(C) 2019 by FIZ Karlsruhe - Leibniz Institute for Information Infrastructure.  All rights reserved.
data_85716-ICSD
_database_code_ICSD 85716
_audit_creation_date 1999-11-30
_chemical_name_systematic 'Lanthanum sodium manganese oxide (0.82/0.12/1/2.94)'
_chemical_formula_structural 'La0.82 Na0.12 Mn O2.94'
_chemical_formula_sum 'La0.82 Mn1 Na0.12 O2.94'
_chemical_name_structure_type (La,Pb)MnO3
_exptl_crystal_density_diffrn 6.16
_cell_measurement_temperature 297.
_publ_section_title 'Crystal structure of sodium doped lanthanum orthomanganite'
loop_
_citation_id
_citation_journal_full
_citation_year
_citation_journal_volume
_citation_page_first
_citation_page_last
_citation_journal_id_ASTM
primary 'European Journal of Solid State and Inorganic Chemistry' 1998 35 273
280 EJSCE5
loop_
_publ_author_name
'Sooryanarayana, K.'
'Shivakumara, C.'
'Guru Row, T.N.'
'Hegde, M.S.'
_cell_length_a 5.530(2)
_cell_length_b 5.530(2)
_cell_length_c 6.676(3)
_cell_angle_alpha 90.
_cell_angle_beta 90.
_cell_angle_gamma 120.
_cell_volume 176.81
_cell_formula_units_Z 3
_symmetry_space_group_name_H-M 'R -3 H'
_symmetry_Int_Tables_number 148
_refine_ls_R_factor_all 0.034
loop_
_symmetry_equiv_pos_site_id
_symmetry_equiv_pos_as_xyz
1 'x-y, x, -z'
2 'y, -x+y, -z'
3 '-x, -y, -z'
4 '-x+y, -x, z'
5 '-y, x-y, z'
6 'x, y, z'
7 'x-y+2/3, x+1/3, -z+1/3'
8 'y+2/3, -x+y+1/3, -z+1/3'
9 '-x+2/3, -y+1/3, -z+1/3'
10 '-x+y+2/3, -x+1/3, z+1/3'
11 '-y+2/3, x-y+1/3, z+1/3'
12 'x+2/3, y+1/3, z+1/3'
13 'x-y+1/3, x+2/3, -z+2/3'
14 'y+1/3, -x+y+2/3, -z+2/3'
15 '-x+1/3, -y+2/3, -z+2/3'
16 '-x+y+1/3, -x+2/3, z+2/3'
17 '-y+1/3, x-y+2/3, z+2/3'
18 'x+1/3, y+2/3, z+2/3'
loop_
_atom_type_symbol
_atom_type_oxidation_number
La3+ 3
Na1+ 1
Mn3+ 3.3
O2- -2
loop_
_atom_site_label
_atom_site_type_symbol
_atom_site_symmetry_multiplicity
_atom_site_Wyckoff_symbol
_atom_site_fract_x
_atom_site_fract_y
_atom_site_fract_z
_atom_site_B_iso_or_equiv
_atom_site_occupancy
_atom_site_attached_hydrogens
La1 La3+ 3 a 0 0 0 0.009(1) 0.8202 0
Na1 Na1+ 3 a 0 0 0 0.009(1) 0.12 0
Mn1 Mn3+ 3 b 0 0 0.5 0.010(1) 1. 0
O1 O2- 9 e 0.1667 0.3333 0.3333 0.054(6) 0.98(4) 0
#End of TTdata_85716-ICSD