
#(C) 2019 by FIZ Karlsruhe - Leibniz Institute for Information Infrastructure.  All rights reserved.
data_85715-ICSD
_database_code_ICSD 85715
_audit_creation_date 1999-11-30
_chemical_name_systematic 'Sodium calcium hexafluoroaluminate - alpha'
_chemical_formula_structural 'Na Ca (Al F6)'
_chemical_formula_sum 'Al1 Ca1 F6 Na1'
_exptl_crystal_density_diffrn 2.94
_cell_measurement_temperature 295.
_publ_section_title

;
Structure of alpha-(Na Ca Al F6) determined ab initio from conventional powder
diffraction data
;
loop_
_citation_id
_citation_journal_full
_citation_year
_citation_journal_volume
_citation_page_first
_citation_page_last
_citation_journal_id_ASTM
primary 'European Journal of Solid State and Inorganic Chemistry' 1998 35 265
272 EJSCE5
loop_
_publ_author_name
'Le Bail, A.'
'Hemon-Ribaud, A.'
'Courbion, G.'
_cell_length_a 8.7423(3)
_cell_length_b 5.1927(2)
_cell_length_c 20.35139(90)
_cell_angle_alpha 90.
_cell_angle_beta 91.499(2)
_cell_angle_gamma 90.
_cell_volume 923.56
_cell_formula_units_Z 8
_symmetry_space_group_name_H-M 'P 1 21/c 1'
_symmetry_Int_Tables_number 14
_refine_ls_R_factor_all 0.052
loop_
_symmetry_equiv_pos_site_id
_symmetry_equiv_pos_as_xyz
1 'x, -y+1/2, z+1/2'
2 '-x, -y, -z'
3 '-x, y+1/2, -z+1/2'
4 'x, y, z'
loop_
_atom_type_symbol
_atom_type_oxidation_number
Na1+ 1
Ca2+ 2
Al3+ 3
F1- -1
loop_
_atom_site_label
_atom_site_type_symbol
_atom_site_symmetry_multiplicity
_atom_site_Wyckoff_symbol
_atom_site_fract_x
_atom_site_fract_y
_atom_site_fract_z
_atom_site_B_iso_or_equiv
_atom_site_occupancy
_atom_site_attached_hydrogens
Na1 Na1+ 4 e 0.9768(10) 0.2543(14) 0.1781(4) 2.2(1) 1. 0
Na2 Na1+ 4 e 0.9681(11) 0.2734(14) 0.4413(4) 2.2(1) 1. 0
Ca1 Ca2+ 4 e 0.6403(5) 0.2375(8) 0.3108(3) 0.85(4) 1. 0
Ca2 Ca2+ 4 e 0.6357(5) 0.3219(7) 0.5623(3) 0.85(4) 1. 0
Al1 Al3+ 4 e 0.2588(9) 0.2561(16) 0.3189(4) 1.67(8) 1. 0
Al2 Al3+ 4 e 0.2528(9) 0.1903(12) 0.5688(4) 1.67(8) 1. 0
F1 F1- 4 e 0.6290(11) 0.6261(19) 0.4777(5) 1.46(5) 1. 0
F2 F1- 4 e 0.5863(10) 0.6137(19) 0.6397(5) 1.46(5) 1. 0
F3 F1- 4 e 0.7338(9) 0.0827(18) 0.4824(5) 1.46(5) 1. 0
F4 F1- 4 e 0.3809(10) 0.1003(19) 0.2626(6) 1.46(5) 1. 0
F5 F1- 4 e 0.1625(10) -.0247(17) 0.6328(5) 1.46(5) 1. 0
F6 F1- 4 e 0.1643(11) 0.4377(20) 0.3814(5) 1.46(5) 1. 0
F7 F1- 4 e 0.2357(9) 0.4669(19) 0.6229(5) 1.46(5) 1. 0
F8 F1- 4 e 0.5786(10) 0.5944(18) 0.8821(6) 1.46(5) 1. 0
F9 F1- 4 e 0.9132(11) 0.6404(19) 0.2260(5) 1.46(5) 1. 0
F10 F1- 4 e 0.7403(10) 0.0217(18) 0.2307(5) 1.46(5) 1. 0
F11 F1- 4 e 0.7551(9) 0.0334(18) 0.6259(5) 1.46(5) 1. 0
F12 F1- 4 e 0.0748(11) 0.2790(16) 0.5398(5) 1.46(5) 1. 0
#End of TTdata_85715-ICSD