
#(C) 2019 by FIZ Karlsruhe - Leibniz Institute for Information Infrastructure.  All rights reserved.
data_85724-ICSD
_database_code_ICSD 85724
_audit_creation_date 1999-11-30
_chemical_name_systematic 'Sodium catena-tetranioboarsenate(V)'
_chemical_formula_structural 'Na ((Nb4 O9) (As O4))'
_chemical_formula_sum 'As1 Na1 Nb4 O13'
_exptl_crystal_density_diffrn 4.17
_publ_section_title

;
Crystal structure of the arsenate Na Nb4 O9 As O4. A framework structure with
diffusion pathways
;
loop_
_citation_id
_citation_journal_full
_citation_year
_citation_journal_volume
_citation_page_first
_citation_page_last
_citation_journal_id_ASTM
primary 'European Journal of Solid State and Inorganic Chemistry' 1998 35 473
482 EJSCE5
loop_
_publ_author_name
'Bestaoui, N.'
'Verbaere, A.'
'Piffard, Y.'
'Couibaly, V.'
'Zah-Letho, J.J.'
_cell_length_a 9.9858(7)
_cell_length_b 10.3811(6)
_cell_length_c 10.4107(6)
_cell_angle_alpha 90.
_cell_angle_beta 90.
_cell_angle_gamma 90.
_cell_volume 1079.21
_cell_formula_units_Z 4
_symmetry_space_group_name_H-M 'P n m a'
_symmetry_Int_Tables_number 62
_refine_ls_R_factor_all 0.067
loop_
_symmetry_equiv_pos_site_id
_symmetry_equiv_pos_as_xyz
1 'x+1/2, y, -z+1/2'
2 'x, -y+1/2, z'
3 '-x+1/2, y+1/2, z+1/2'
4 '-x, -y, -z'
5 '-x+1/2, -y, z+1/2'
6 '-x, y+1/2, -z'
7 'x+1/2, -y+1/2, -z+1/2'
8 'x, y, z'
loop_
_atom_type_symbol
_atom_type_oxidation_number
Nb5+ 5
As5+ 5
O2- -2
Na1+ 1
loop_
_atom_site_label
_atom_site_type_symbol
_atom_site_symmetry_multiplicity
_atom_site_Wyckoff_symbol
_atom_site_fract_x
_atom_site_fract_y
_atom_site_fract_z
_atom_site_B_iso_or_equiv
_atom_site_occupancy
_atom_site_attached_hydrogens
Nb1 Nb5+ 8 d 0.74568(2) 0.07893(2) 0.47994(2) . 1. 0
Nb2 Nb5+ 8 d 0.99944(3) 0.07206(2) 0.74618(2) . 1. 0
As1 As5+ 4 c 0.75266(5) 0.25 0.91063(4) . 1. 0
O1 O2- 4 c 0.8889(3) 0.25 0.8132(3) . 1. 0
O2 O2- 8 d 0.8894(2) 0.0959(2) 0.5917(2) . 1. 0
O3 O2- 8 d 0.7416(2) 0.8772(2) 0.5090(2) . 1. 0
O4 O2- 4 c 0.1111(3) 0.25 0.6786(3) . 1. 0
O5 O2- 4 c 0.7495(3) 0.25 0.4115(3) . 1. 0
O6 O2- 8 d 0.6120(2) 0.0351(2) 0.3307(2) . 1. 0
O7 O2- 8 d 0.6096(2) 0.1034(2) 0.5942(2) . 1. 0
O8 O2- 8 d 0.8802(2) 0.0347(2) 0.3270(2) . 1. 0
Na1 Na1+ 4 c 0.8299(5) 0.25 0.2029(3) . 0.79(1) 0
Na2 Na1+ 4 c 0.937(2) 0.25 0.189(2) 0.010(4) 0.097(7) 0
Na3 Na1+ 4 c 0.658(4) 0.25 0.212(4) 0.010(4) 0.052(4) 0
Na4 Na1+ 4 c 0.731(3) 0.25 0.199(3) 0.010(4) 0.06(1) 0
loop_
_atom_site_aniso_label
_atom_site_aniso_type_symbol
_atom_site_aniso_U_11
_atom_site_aniso_U_22
_atom_site_aniso_U_33
_atom_site_aniso_U_12
_atom_site_aniso_U_13
_atom_site_aniso_U_23
Nb1 Nb5+ 0.00757(9) 0.00573(8) 0.00538(8) 0.0001(1) 0.00029(9) -.00064(6)
Nb2 Nb5+ 0.00532(9) 0.00651(9) 0.00725(9) -.0004(1) 0.00121(6) -.0002(1)
As1 As5+ 0.0050(1) 0.0049(1) 0.0056(1) 0 0.0005(2) 0
O1 O2- 0.004(1) 0.009(2) 0.009(1) 0 0.0048(9) 0
O2 O2- 0.0139(9) 0.013(1) 0.0086(8) 0.0002(9) -.0057(8) -.0005(8)
O3 O2- 0.0197(9) 0.0051(6) 0.0075(7) 0.0009(9) 0.0023(9) -.0014(6)
O4 O2- 0.013(1) 0.008(2) 0.013(1) 0 0.002(1) 0
O5 O2- 0.013(1) 0.0056(9) 0.008(1) 0 0.002(1) 0
O6 O2- 0.014(1) 0.013(1) 0.0086(8) -.0018(9) -.0040(8) -.0007(8)
O7 O2- 0.014(1) 0.013(1) 0.0133(9) 0.0000(9) 0.0061(9) 0.0008(8)
O8 O2- 0.0091(9) 0.015(1) 0.0121(9) 0.0041(9) 0.0041(8) -.0029(9)
Na1 Na1+ 0.085(5) 0.043(2) 0.011(1) 0 0.006(2) 0
#End of TTdata_85724-ICSD