
#(C) 2019 by FIZ Karlsruhe - Leibniz Institute for Information Infrastructure.  All rights reserved.
data_85741-ICSD
_database_code_ICSD 85741
_audit_creation_date 1999-11-30
_audit_update_record 2006-04-01
_chemical_name_systematic 'Trisodium hydrogen bis(sulfate(VI))'
_chemical_formula_structural 'Na3 H (S O4)2'
_chemical_formula_sum 'H1 Na3 O8 S2'
_exptl_crystal_density_diffrn 2.44
_cell_measurement_temperature 139.
_publ_section_title

;
Structural phase transition and crystal structure of Na3 H (S O4)2 in the low
temperature phase
;
loop_
_citation_id
_citation_journal_full
_citation_year
_citation_journal_volume
_citation_page_first
_citation_page_last
_citation_journal_id_ASTM
primary Ferroelectrics 1998 211 67 77 FEROA8
loop_
_publ_author_name
'Fukami, T.'
'Chen, R.-H.'
_cell_length_a 8.633(2)
_cell_length_b 9.617(1)
_cell_length_c 9.082(1)
_cell_angle_alpha 89.988(9)
_cell_angle_beta 108.80(1)
_cell_angle_gamma 90.05(1)
_cell_volume 713.79
_cell_formula_units_Z 4
_symmetry_space_group_name_H-M 'P 1'
_symmetry_Int_Tables_number 1
_refine_ls_R_factor_all 0.037
loop_
_symmetry_equiv_pos_site_id
_symmetry_equiv_pos_as_xyz
1 'x, y, z'
loop_
_atom_type_symbol
_atom_type_oxidation_number
S6+ 6
Na1+ 1
O2- -2
H1+ 1
loop_
_atom_site_label
_atom_site_type_symbol
_atom_site_symmetry_multiplicity
_atom_site_Wyckoff_symbol
_atom_site_fract_x
_atom_site_fract_y
_atom_site_fract_z
_atom_site_B_iso_or_equiv
_atom_site_occupancy
_atom_site_attached_hydrogens
S1 S6+ 1 a 0.1385 0.3093 0.8518 . 1. 0
S2 S6+ 1 a 0.6334(1) 0.32004(9) 0.3989(1) . 1. 0
S3 S6+ 1 a 0.1382(1) 0.19078(9) 0.3517(1) . 1. 0
S4 S6+ 1 a 0.3652(1) 0.81955(9) 0.0891(1) . 1. 0
S5 S6+ 1 a 0.8604(1) 0.69106(9) 0.13664(9) . 1. 0
S6 S6+ 1 a 0.3652(1) 0.68076(9) 0.5891(1) . 1. 0
S7 S6+ 1 a 0.8603(1) 0.80892(9) 0.6365(1) . 1. 0
S8 S6+ 1 a 0.6333(1) 0.1801(1) 0.8988(1) . 1. 0
Na1 Na1+ 1 a -.0003(5) 0.0002(5) -.0001(4) . 1. 0
Na2 Na1+ 1 a 0.5015(6) -.0004(6) 0.4926(6) . 1. 0
Na3 Na1+ 1 a 0.7419(2) -.0055(2) 0.2703(2) . 1. 0
Na4 Na1+ 1 a 0.3854(2) 0.1579(2) 0.1217(2) . 1. 0
Na5 Na1+ 1 a 0.0006(6) 0.4979(5) 0.4938(6) . 1. 0
Na6 Na1+ 1 a 0.5004(7) 0.4993(6) -.0024(6) . 1. 0
Na7 Na1+ 1 a 0.2589(2) 0.4937(2) 0.2198(2) . 1. 0
Na8 Na1+ 1 a 0.6134(2) 0.6567(2) 0.3670(2) . 1. 0
Na9 Na1+ 1 a 0.2574(2) 0.0047(2) 0.7176(2) . 1. 0
Na10 Na1+ 1 a 0.6137(3) 0.8456(2) 0.8662(2) . 1. 0
Na11 Na1+ 1 a 0.7433(2) 0.5040(2) 0.7723(2) . 1. 0
Na12 Na1+ 1 a 0.3851(2) 0.3444(2) 0.6221(2) . 1. 0
O1 O2- 1 a 0.1545(4) 0.1555(3) 0.8701(3) . 1. 0
O2 O2- 1 a 0.2547(3) 0.3771(3) 0.9880(3) . 1. 0
O3 O2- 1 a -.0349(4) 0.3476(4) 0.8481(4) . 1. 0
O4 O2- 1 a 0.1589(4) 0.3598(4) 0.7060(3) . 1. 0
O5 O2- 1 a 0.6131(4) 0.3671(3) 0.5415(3) . 1. 0
O6 O2- 1 a 0.8114(4) 0.3361(3) 0.4146(4) . 1. 0
O7 O2- 1 a 0.5920(4) 0.1714(3) 0.3648(3) . 1. 0
O8 O2- 1 a 0.5326(3) 0.4044(3) 0.2694(3) . 1. 0
O9 O2- 1 a 0.1551(4) 0.3430(3) 0.3694(3) . 1. 0
O10 O2- 1 a 0.2566(4) 0.1248(3) 0.4870(3) . 1. 0
O11 O2- 1 a -.0343(3) 0.1492(3) 0.3483(4) . 1. 0
O12 O2- 1 a 0.1578(4) 0.1425(3) 0.2083(3) . 1. 0
O13 O2- 1 a 0.3848(4) 0.8687(3) -.0568(3) . 1. 0
O14 O2- 1 a 0.1900(4) 0.8337(4) 0.0767(4) . 1. 0
O15 O2- 1 a 0.4080(4) 0.6703(3) 0.1198(3) . 1. 0
O16 O2- 1 a 0.4657(4) 0.9058(3) 0.2196(3) . 1. 0
O17 O2- 1 a 0.8474(4) 0.8414(3) 0.1220(3) . 1. 0
O18 O2- 1 a 0.7426(5) 0.6251(3) 0.0035(4) . 1. 0
O19 O2- 1 a 0.0305(4) 0.6491(3) 0.1381(4) . 1. 0
O20 O2- 1 a 0.8410(4) 0.6443(3) 0.2790(4) . 1. 0
O21 O2- 1 a 0.3830(4) 0.6354(3) 0.4390(3) . 1. 0
O22 O2- 1 a 0.1916(4) 0.6614(3) 0.5807(4) . 1. 0
O23 O2- 1 a 0.4103(4) 0.8260(3) 0.6163(3) . 1. 0
O24 O2- 1 a 0.4625(5) 0.5919(3) 0.7180(4) . 1. 0
O25 O2- 1 a 0.8475(4) 0.6575(3) 0.6212(3) . 1. 0
O26 O2- 1 a 0.7441(4) 0.8765(3) 0.5016(4) . 1. 0
O27 O2- 1 a 0.0292(4) 0.8486(3) 0.6386(4) . 1. 0
O28 O2- 1 a 0.8407(4) 0.8573(4) 0.7821(3) . 1. 0
O29 O2- 1 a 0.6142(4) 0.1368(3) 0.0446(4) . 1. 0
O30 O2- 1 a 0.8097(3) 0.1609(3) -.0899(4) . 1. 0
O31 O2- 1 a 0.5909(4) 0.3258(3) 0.8681(3) . 1. 0
O32 O2- 1 a 0.5353(5) 0.0933(3) 0.7716(4) . 1. 0
H1 H1+ 1 a 0.882(11) 0.212(8) 0.891(9) 3.(2) 1. 0
H2 H1+ 1 a 0.878(13) 0.292(10) 0.392(11) 5.(2) 1. 0
H3 H1+ 1 a 0.100(12) 0.714(19) 0.122(10) 4.(2) 1. 0
H4 H1+ 1 a 0.113(11) 0.721(9) 0.608(10) 3.(2) 1. 0
loop_
_atom_site_aniso_label
_atom_site_aniso_type_symbol
_atom_site_aniso_U_11
_atom_site_aniso_U_22
_atom_site_aniso_U_33
_atom_site_aniso_U_12
_atom_site_aniso_U_13
_atom_site_aniso_U_23
S1 S6+ 0.0026(3) 0.0081(3) 0.0064(3) 0.0006(2) -.0002(2) -.0011(2)
S2 S6+ 0.0052(3) 0.0049(3) 0.0064(3) 0.0013(2) -.0002(2) -.0018(2)
S3 S6+ 0.0003(2) 0.0102(3) 0.0067(3) 0.0017(2) 0.0004(2) -.0002(2)
S4 S6+ 0.0131(3) 0.0031(3) 0.0058(3) 0.0034(2) 0.0039(2) 0.0020(2)
S5 S6+ 0.0150(3) 0.0054(3) 0.0039(2) 0.0040(3) 0.0056(2) 0.0026(2)
S6 S6+ 0.0094(3) 0.0075(3) 0.0052(3) 0.0033(3) 0.0038(2) 0.0006(2)
S7 S6+ 0.0156(3) 0.0047(3) 0.0037(2) 0.0034(3) 0.0035(2) -.0002(2)
S8 S6+ 0.0018(2) 0.0100(3) 0.0064(3) 0.0016(2) 0.0000(2) -.0003(2)
Na1 Na1+ 0.0103(5) 0.0100(5) 0.0101(5) 0.0044(4) 0.0012(4) 0.0009(4)
Na2 Na1+ 0.0191(5) 0.0125(5) 0.0192(5) 0.0073(4) 0.0127(4) 0.0071(4)
Na3 Na1+ 0.0185(7) 0.0082(6) 0.0095(6) 0.0037(6) 0.0041(5) -.0018(5)
Na4 Na1+ 0.0009(5) 0.0176(7) 0.0101(6) 0.0026(5) -.0021(5) -.0005(6)
Na5 Na1+ 0.0103(5) 0.0094(5) 0.0125(5) 0.0015(4) 0.0005(4) -.0015(4)
Na6 Na1+ 0.0187(5) 0.0128(5) 0.0185(5) -.0012(4) 0.0118(4) -.0068(4)
Na7 Na1+ 0.0097(6) 0.0085(6) 0.0092(5) 0.0012(5) 0.0030(4) 0.0024(5)
Na8 Na1+ 0.0071(6) 0.0196(8) 0.0086(6) 0.0011(6) 0.0008(5) -.0044(6)
Na9 Na1+ 0.0082(6) 0.0122(6) 0.0066(5) 0.0009(5) 0.0029(4) 0.0010(5)
Na10 Na1+ 0.0234(8) 0.0158(7) 0.0065(5) 0.0064(6) 0.0066(5) 0.0047(5)
Na11 Na1+ 0.0150(6) 0.0112(6) 0.0075(5) 0.0060(5) 0.0039(5) -.0012(5)
Na12 Na1+ 0.0158(7) 0.0157(7) 0.0083(6) 0.0022(6) 0.0031(5) 0.0007(5)
O1 O2- 0.0099(10) 0.0071(9) 0.0104(10) 0.0045(8) 0.0020(8) 0.0014(8)
O2 O2- 0.0044(9) 0.0132(10) 0.0067(9) -.0022(8) 0.0004(7) -.0043(8)
O3 O2- 0.0059(9) 0.0217(14) 0.0185(11) 0.0003(10) 0.0064(8) -.0003(11)
O4 O2- 0.0088(9) 0.0228(13) 0.0037(8) 0.0023(10) 0.0035(7) 0.0044(9)
O5 O2- 0.0083(9) 0.0206(12) 0.0055(8) 0.0008(9) 0.0033(7) -.0055(9)
O6 O2- 0.0067(9) 0.008(1) 0.0176(11) 0.0001(8) 0.0031(8) -.0009(9)
O7 O2- 0.0108(10) 0.0040(9) 0.0102(9) -.0016(8) 0.0033(8) -.0027(8)
O8 O2- 0.0041(9) 0.0125(10) 0.0118(10) 0.0042(8) 0.0024(7) 0.0031(9)
O9 O2- 0.0152(11) 0.0043(9) 0.0117(10) 0.0002(9) 0.0045(8) -.0008(8)
O10 O2- 0.0230(13) 0.0107(11) 0.0052(9) 0.0075(10) 0.0034(9) 0.0039(8)
O11 O2- 0.0030(9) 0.0157(12) 0.0160(11) -.0005(9) 0.0031(8) -.0019(10)
O12 O2- 0.0233(12) 0.0103(10) 0.0080(9) 0.0048(10) 0.0067(8) -.0039(8)
O13 O2- 0.0157(11) 0.0181(12) 0.0055(9) 0.0031(10) 0.0046(8) 0.0066(9)
O14 O2- 0.010(1) 0.0163(12) 0.0220(12) 0.005(1) 0.0077(9) 0.0012(11)
O15 O2- 0.0221(12) 0.0051(9) 0.0088(9) 0.0089(9) 0.0072(8) 0.0004(8)
O16 O2- 0.010(1) 0.0149(11) 0.0059(8) -.0036(9) 0.0026(7) -.0068(8)
O17 O2- 0.0136(10) 0.0073(9) 0.0094(9) 0.0028(9) 0.0050(8) -.0004(8)
O18 O2- 0.0270(15) 0.0115(11) 0.0097(10) 0.0026(11) 0.0039(10) 0.0002(9)
O19 O2- 0.0112(10) 0.0048(9) 0.0185(11) 0.0046(8) 0.0052(8) 0.0051(8)
O20 O2- 0.0175(12) 0.0094(10) 0.0126(10) 0.0034(10) 0.0053(9) 0.0038(9)
O21 O2- 0.0210(13) 0.0136(11) 0.0080(9) 0.0052(10) 0.0042(9) -.0039(9)
O22 O2- 0.0184(13) 0.0120(12) 0.0206(12) 0.0022(10) 0.0068(10) -.0043(10)
O23 O2- 0.0165(11) 0.0094(10) 0.0076(9) 0.0019(9) 0.0054(8) -.0006(8)
O24 O2- 0.0376(17) 0.0111(11) 0.0074(10) 0.0104(12) 0.0045(11) 0.0029(9)
O25 O2- 0.0111(10) 0.0106(10) 0.0073(9) 0.0021(9) 0.0028(8) 0.0002(8)
O26 O2- 0.0050(9) 0.0164(12) 0.0126(10) 0.0047(9) 0.0007(8) 0.0021(9)
O27 O2- 0.0219(12) 0.0033(9) 0.0219(12) 0.0025(9) 0.0114(9) -.0045(9)
O28 O2- 0.0077(9) 0.0248(14) 0.0064(9) 0.0014(10) 0.0033(7) -.0030(9)
O29 O2- 0.0136(11) 0.0122(11) 0.0143(11) 0.0008(10) 0.0038(9) 0.0010(9)
O30 O2- 0.0058(9) 0.0056(9) 0.0257(12) 0.0037(8) 0.0060(8) 0.0091(9)
O31 O2- 0.0066(9) 0.0076(10) 0.0117(10) 0.0006(8) 0.0001(8) 0.0030(8)
O32 O2- 0.0239(15) 0.0107(11) 0.0140(12) -.0004(11) 0.0018(11) -.0008(10)
#End of TTdata_85741-ICSD