
#(C) 2019 by FIZ Karlsruhe - Leibniz Institute for Information Infrastructure.  All rights reserved.
data_85792-ICSD
_database_code_ICSD 85792
_audit_creation_date 1999-11-30
_chemical_name_systematic 'Cesium sodium lanthanum bromide nitride (1/1/6/14/2)'
_chemical_formula_structural 'Cs Na La6 Br14 N2'
_chemical_formula_sum 'Br14 Cs1 La6 N2 Na1'
_exptl_crystal_density_diffrn 4.75
_cell_measurement_temperature 296.
_publ_section_title

;
Synthesis and structure of Cs Na La6 Br14 N2 and La3 Br6 N : rare-earth-metal
halides with isolated bitetrahedral La6 N2 units
;
loop_
_citation_id
_citation_journal_full
_citation_year
_citation_journal_volume
_citation_page_first
_citation_page_last
_citation_journal_id_ASTM
primary 'Inorganic Chemistry' 1998 37 777 781 INOCAJ
loop_
_publ_author_name
'Lulei, M.'
_cell_length_a 10.452(1)
_cell_length_b 13.193(2)
_cell_length_c 10.876(2)
_cell_angle_alpha 90.
_cell_angle_beta 95.07(1)
_cell_angle_gamma 90.
_cell_volume 1493.86
_cell_formula_units_Z 2
_symmetry_space_group_name_H-M 'P 1 21/n 1'
_symmetry_Int_Tables_number 14
_refine_ls_R_factor_all 0.044
loop_
_symmetry_equiv_pos_site_id
_symmetry_equiv_pos_as_xyz
1 '-x+1/2, y+1/2, -z+1/2'
2 '-x, -y, -z'
3 'x+1/2, -y+1/2, z+1/2'
4 'x, y, z'
loop_
_atom_type_symbol
_atom_type_oxidation_number
La3+ 3
Cs1+ 1
Na1+ 1
Br1- -1
N3- -3
loop_
_atom_site_label
_atom_site_type_symbol
_atom_site_symmetry_multiplicity
_atom_site_Wyckoff_symbol
_atom_site_fract_x
_atom_site_fract_y
_atom_site_fract_z
_atom_site_B_iso_or_equiv
_atom_site_occupancy
_atom_site_attached_hydrogens
La1 La3+ 4 e 0.00119(6) 0.40781(5) 0.87064(6) . 1. 0
La2 La3+ 4 e 0.24500(7) 0.36678(5) 0.14273(6) . 1. 0
La3 La3+ 4 e 0.70863(6) 0.40886(5) 0.08661(7) . 1. 0
Cs1 Cs1+ 2 a 0 0 0 . 1. 0
Na1 Na1+ 4 e 0.0453(18) 0.5917(15) 0.5541(15) . 0.47(3) 0
Br1 Br1- 4 e 0.7846(1) 0.2489(1) 0.8959(1) . 1. 0
Br2 Br1- 4 e 0.4960(1) 0.2494(1) 0.1189(1) . 1. 0
Br3 Br1- 4 e 0.8272(1) 0.4878(1) 0.6586(1) . 1. 0
Br4 Br1- 4 e 0.1824(1) 0.2291(1) 0.9266(1) . 1. 0
Br5 Br1- 4 e 0.4602(1) 0.5299(1) 0.1528(1) . 1. 0
Br6 Br1- 4 e 0.9644(1) 0.3124(1) 0.1765(2) . 1. 0
Br7 Br1- 4 e 0.2152(1) 0.4644(1) 0.6964(1) . 1. 0
N1 N3- 4 e 0.8474(9) 0.5109(7) 0.9851(9) . 1. 0
loop_
_atom_site_aniso_label
_atom_site_aniso_type_symbol
_atom_site_aniso_U_11
_atom_site_aniso_U_22
_atom_site_aniso_U_33
_atom_site_aniso_U_12
_atom_site_aniso_U_13
_atom_site_aniso_U_23
La1 La3+ 0.0176(3) 0.0196(3) 0.0166(3) 0.0000(2) -.0015(2) -.0029(2)
La2 La3+ 0.0212(3) 0.0231(4) 0.0176(3) 0.0042(3) -.0032(2) 0.0014(3)
La3 La3+ 0.0188(3) 0.0223(4) 0.0229(4) -.0042(3) 0.0030(3) -.0031(3)
Cs1 Cs1+ 0.0387(7) 0.0728(11) 0.0305(7) -.0114(7) -.0018(6) 0.0110(6)
Na1 Na1+ 0.077(13) 0.074(13) 0.04(1) 0.029(19) 0.028(8) 0.031(8)
Br1 Br1- 0.0373(7) 0.0277(7) 0.0271(7) -.0094(5) 0.0072(5) -.0102(5)
Br2 Br1- 0.0219(36) 0.0216(6) 0.0383(7) -.0002(5) 0.0034(5) 0.0051(5)
Br3 Br1- 0.0400(7) 0.0343(7) 0.0175(6) 0.0132(6) -.0050(5) -.0040(5)
Br4 Br1- 0.0388(7) 0.0248(6) 0.0349(7) 0.0079(5) -.0067(6) -.0045(5)
Br5 Br1- 0.0240(6) 0.0296(6) 0.0261(6) 0.0009(5) -.0015(5) -.0054(5)
Br6 Br1- 0.0253(7) 0.0425(8) 0.0415(8) 0.0011(6) -.0013(6) 0.0109(6)
Br7 Br1- 0.0331(7) 0.0353(7) 0.0194(6) -.0089(5) 0.00536(5) -.0048(5)
N1 N3- 0.0209(46) 0.0195(47) 0.0132(44) 0.0013(36) -.0019(36) 0.0023(35)
#End of TTdata_85792-ICSD