
#(C) 2019 by FIZ Karlsruhe - Leibniz Institute for Information Infrastructure.  All rights reserved.
data_86274-ICSD
_database_code_ICSD 86274
_audit_creation_date 1999-11-30
_audit_update_record 2003-10-01
_chemical_name_systematic 'Dirubidium sodium holmium fluoride - LT'
_chemical_formula_structural 'Rb2 Na Ho F6'
_chemical_formula_sum 'F6 Ho1 Na1 Rb2'
_chemical_name_structure_type Sr2NiWO6
_exptl_crystal_density_diffrn 4.56
_cell_measurement_temperature 17.
_publ_section_title 'Structures and phase transition in Rb2 Na Ho F6'
loop_
_citation_id
_citation_journal_full
_citation_year
_citation_journal_volume
_citation_page_first
_citation_page_last
_citation_journal_id_ASTM
primary 'Solid State Communications' 1982 41 525 527 SSCOA4
loop_
_publ_author_name
'Ihringer, J.'
_cell_length_a 6.2233(3)
_cell_length_b 6.2233(3)
_cell_length_c 8.8957(3)
_cell_angle_alpha 90.
_cell_angle_beta 90.
_cell_angle_gamma 90.
_cell_volume 344.53
_cell_formula_units_Z 2
_symmetry_space_group_name_H-M 'I 4/m'
_symmetry_Int_Tables_number 87
_refine_ls_R_factor_all 0.046
loop_
_symmetry_equiv_pos_site_id
_symmetry_equiv_pos_as_xyz
1 '-y, x, -z'
2 'y, -x, -z'
3 'x, y, -z'
4 '-x, -y, -z'
5 'y, -x, z'
6 '-y, x, z'
7 '-x, -y, z'
8 'x, y, z'
9 '-y+1/2, x+1/2, -z+1/2'
10 'y+1/2, -x+1/2, -z+1/2'
11 'x+1/2, y+1/2, -z+1/2'
12 '-x+1/2, -y+1/2, -z+1/2'
13 'y+1/2, -x+1/2, z+1/2'
14 '-y+1/2, x+1/2, z+1/2'
15 '-x+1/2, -y+1/2, z+1/2'
16 'x+1/2, y+1/2, z+1/2'
loop_
_atom_type_symbol
_atom_type_oxidation_number
Na1+ 1
Ho3+ 3
Rb1+ 1
F1- -1
loop_
_atom_site_label
_atom_site_type_symbol
_atom_site_symmetry_multiplicity
_atom_site_Wyckoff_symbol
_atom_site_fract_x
_atom_site_fract_y
_atom_site_fract_z
_atom_site_B_iso_or_equiv
_atom_site_occupancy
_atom_site_attached_hydrogens
Na1 Na1+ 2 a 0 0 0 0.2(5) 1. 0
Ho1 Ho3+ 2 b 0 0 0.5 0.7(1) 1. 0
Rb1 Rb1+ 4 d 0 0.5 0.25 0.0(1) 1. 0
F1 F1- 8 h 0.231(4) 0.279(4) 0 -0.3(4) 1. 0
F2 F1- 4 e 0 0 0.258(2) 1.9(6) 1. 0
#End of TTdata_86274-ICSD