
#(C) 2019 by FIZ Karlsruhe - Leibniz Institute for Information Infrastructure.  All rights reserved.
data_86326-ICSD
_database_code_ICSD 86326
_audit_creation_date 1999-11-30
_chemical_name_systematic
'Calcium sodium aluminium silicon oxide (0.72/0.28/1.72/2.28/8)'
_chemical_formula_structural '(Ca0.72 Na0.28) (Al1.72 Si0.28) Si2 O8'
_chemical_formula_sum 'Al1.72 Ca0.72 Na0.28 O8 Si2.28'
_chemical_name_structure_type Feldspar#-(TC,I1-,i28)-Bytownite
_chemical_name_mineral Unnamed_Feldspar
_exptl_crystal_density_diffrn 2.72
_publ_section_title

;
Structural variation associated with compositional variation and
order-disorder behavior in anorthite-rich feldspars
;
loop_
_citation_id
_citation_journal_full
_citation_year
_citation_journal_volume
_citation_page_first
_citation_page_last
_citation_journal_id_ASTM
primary 'American Mineralogist' 1990 75 150 162 AMMIAY
loop_
_publ_author_name
'Angel, R.J.'
'Carpenter, M.A.'
'Finger, L.W.'
_cell_length_a 8.174(4)
_cell_length_b 12.880(6)
_cell_length_c 14.200(5)
_cell_angle_alpha 93.50(3)
_cell_angle_beta 116.11(3)
_cell_angle_gamma 90.55(4)
_cell_volume 1338.82
_cell_formula_units_Z 8
_symmetry_space_group_name_H-M 'I -1'
_symmetry_Int_Tables_number 2
_refine_ls_R_factor_all 0.069
loop_
_symmetry_equiv_pos_site_id
_symmetry_equiv_pos_as_xyz
1 '-x, -y, -z'
2 'x, y, z'
3 '-x+1/2, -y+1/2, -z+1/2'
4 'x+1/2, y+1/2, z+1/2'
loop_
_atom_type_symbol
_atom_type_oxidation_number
Ca2+ 2
Na1+ 1
Ca2+ 2
Na1+ 1
Ca2+ 2
Na1+ 1
Ca2+ 2
Na1+ 1
Si4+ 4
Al3+ 3
Si4+ 4
Al3+ 3
Si4+ 4
Al3+ 3
Si4+ 4
Al3+ 3
Si4+ 4
O2- -2
loop_
_atom_site_label
_atom_site_type_symbol
_atom_site_symmetry_multiplicity
_atom_site_Wyckoff_symbol
_atom_site_fract_x
_atom_site_fract_y
_atom_site_fract_z
_atom_site_B_iso_or_equiv
_atom_site_occupancy
_atom_site_attached_hydrogens
Ca1 Ca2+ 4 i 0.2691(9) 0.981(1) 0.0877(8) . 0.336(2) 0
Na1 Na1+ 4 i 0.2691(9) 0.981(1) 0.0877(8) . 0.151(1) 0
Ca2 Ca2+ 4 i 0.268(1) 0.030(1) 0.546(2) . 0.418(2) 0
Na2 Na1+ 4 i 0.268(1) 0.030(1) 0.546(2) . 0.132(1) 0
Ca3 Ca2+ 4 i 0.775(1) 0.5331(8) 0.5472(8) . 0.354(2) 0
Na3 Na1+ 4 i 0.775(1) 0.5331(8) 0.5472(8) . 0.159(1) 0
Ca4 Ca2+ 4 i 0.765(2) 0.502(6) 0.073(4) . 0.342(2) 0
Na4 Na1+ 4 i 0.765(2) 0.502(6) 0.073(4) . 0.108(1) 0
Si1 Si4+ 4 i 0.0074(5) 0.1593(2) 0.1043(3) . 1. 0
Al1 Al3+ 4 i 0.0036(5) 0.1662(2) 0.6109(3) . 0.86 0
Si2 Si4+ 4 i 0.0036(5) 0.1662(2) 0.6109(3) . 0.14 0
Al2 Al3+ 4 i 0.0001(5) 0.8163(2) 0.1181(3) . 0.86 0
Si3 Si4+ 4 i 0.0001(5) 0.8163(2) 0.1181(3) . 0.14 0
Si4 Si4+ 4 i 0.0059(5) 0.8167(2) 0.6130(3) . 1. 0
Al3 Al3+ 4 i 0.6889(5) 0.1113(2) 0.1590(3) . 0.86 0
Si5 Si4+ 4 i 0.6889(5) 0.1113(2) 0.1590(3) . 0.14 0
Si6 Si4+ 4 i 0.6792(5) 0.1062(2) 0.6580(2) . 1. 0
Si7 Si4+ 4 i 0.6791(5) 0.8810(3) 0.1811(3) . 1. 0
Al4 Al3+ 4 i 0.6828(5) 0.8763(2) 0.6768(3) . 0.86 0
Si8 Si4+ 4 i 0.6828(5) 0.8763(2) 0.6768(3) . 0.14 0
O1 O2- 4 i 0.007(1) 0.1279(6) -.0085(6) . 1. 0
O2 O2- 4 i -.002(1) 0.1283(7) 0.4885(7) . 1. 0
O3 O2- 4 i 0.580(1) -.0094(5) 0.1399(6) . 1. 0
O4 O2- 4 i 0.577(1) -.0079(6) 0.6379(6) . 1. 0
O5 O2- 4 i 0.820(1) 0.1029(6) 0.0916(7) . 1. 0
O6 O2- 4 i 0.803(1) 0.1029(6) 0.5966(7) . 1. 0
O7 O2- 4 i 0.815(1) 0.8528(6) 0.1291(8) . 1. 0
O8 O2- 4 i 0.816(1) 0.8545(6) 0.6166(7) . 1. 0
O9 O2- 4 i 0.014(1) 0.2842(6) 0.1367(7) . 1. 0
O10 O2- 4 i 0.014(1) 0.2938(6) 0.6457(6) . 1. 0
O11 O2- 4 i 0.012(1) 0.6810(6) 0.1091(7) . 1. 0
O12 O2- 4 i 0.013(1) 0.6930(6) 0.6023(6) . 1. 0
O13 O2- 4 i 0.192(1) 0.1078(6) 0.1892(6) . 1. 0
O14 O2- 4 i 0.204(1) 0.1054(6) 0.6916(7) . 1. 0
O15 O2- 4 i 0.193(1) 0.8688(6) 0.2174(7) . 1. 0
O16 O2- 4 i 0.188(1) 0.8636(6) 0.7134(7) . 1. 0
loop_
_atom_site_aniso_label
_atom_site_aniso_type_symbol
_atom_site_aniso_beta_11
_atom_site_aniso_beta_22
_atom_site_aniso_beta_33
_atom_site_aniso_beta_12
_atom_site_aniso_beta_13
_atom_site_aniso_beta_23
Ca1 Ca2+ 0.004(1) 0.0064(7) 0.0037(5) -.0020(6) 0.0024(6) -.0026(6)
Na1 Na1+ 0.004(1) 0.0064(7) 0.0037(5) -.0020(6) 0.0024(6) -.0026(6)
Ca2 Ca2+ 0.002(1) 0.0025(6) 0.0007(5) 0.0015(4) -.0010(1) -.0001(3)
Na2 Na1+ 0.002(1) 0.0025(6) 0.0007(5) 0.0015(4) -.0010(1) -.0001(3)
Ca3 Ca2+ 0.008(1) 0.0032(6) 0.0037(6) -.0001(6) 0.0023(7) -.0013(4)
Na3 Na1+ 0.008(1) 0.0032(6) 0.0037(6) -.0001(6) 0.0023(7) -.0013(4)
Ca4 Ca2+ 0.009(2) 0.010(3) 0.004(2) 0.002(1) 0.000(1) -.003(2)
Na4 Na1+ 0.009(2) 0.010(3) 0.004(2) 0.002(1) 0.000(1) -.003(2)
Si1 Si4+ 0.0047(6) 0.0014(2) 0.0013(2) -.0003(2) 0.0012(3) -.0007(1)
Al1 Al3+ 0.0037(6) 0.0015(2) 0.0006(2) -.0003(3) 0.0007(3) 0.0006(1)
Si2 Si4+ 0.0037(6) 0.0015(2) 0.0006(2) -.0003(3) 0.0007(3) 0.0006(1)
Al2 Al3+ 0.0042(7) 0.0012(2) 0.0007(2) 0.0006(3) 0.0009(3) 0.0003(1)
Si3 Si4+ 0.0042(7) 0.0012(2) 0.0007(2) 0.0006(3) 0.0009(3) 0.0003(1)
Si4 Si4+ 0.0040(7) 0.0021(2) 0.0015(2) 0.0004(3) 0.0009(3) -.0003(2)
Al3 Al3+ 0.0030(7) 0.0008(2) 0.0019(2) 0.0006(3) 0.0012(3) 0.0004(2)
Si5 Si4+ 0.0030(7) 0.0008(2) 0.0019(2) 0.0006(3) 0.0012(3) 0.0004(2)
Si6 Si4+ 0.0037(6) 0.0018(2) 0.0014(2) -.0007(2) 0.0004(3) -.0006(2)
Si7 Si4+ 0.0027(6) 0.0016(2) 0.0022(2) -.0002(3) 0.0013(3) 0.0001(2)
Al4 Al3+ 0.0052(7) 0.0010(2) 0.0008(2) 0.0007(3) 0.0006(3) 0.0003(1)
Si8 Si4+ 0.0052(7) 0.0010(2) 0.0008(2) 0.0007(3) 0.0006(3) 0.0003(1)
O1 O2- 0.012(2) 0.0017(5) 0.0008(5) 0.0004(7) 0.0015(6) 0.0001(4)
O2 O2- 0.009(2) 0.0044(7) 0.0026(6) 0.0011(9) 0.0035(9) 0.0003(5)
O3 O2- 0.002(2) 0.0012(4) 0.0020(5) 0.0011(6) -.0001(7) 0.0003(4)
O4 O2- 0.007(2) 0.0020(5) 0.0022(6) -.0013(7) 0.0024(9) 0.0001(4)
O5 O2- 0.008(2) 0.0020(5) 0.0041(6) -.0010(7) 0.0045(9) -.0006(4)
O6 O2- 0.005(1) 0.0018(4) 0.0031(5) -.0006(6) 0.0024(8) -.0001(4)
O7 O2- 0.010(2) 0.0022(5) 0.0065(8) -.0019(8) 0.005(1) -.0019(5)
O8 O2- 0.007(2) 0.0034(5) 0.0036(5) 0.0023(8) 0.0033(8) 0.0010(4)
O9 O2- 0.007(2) 0.0028(5) 0.0027(5) 0.0001(7) 0.0029(9) -.0001(4)
O10 O2- 0.006(2) 0.0021(5) 0.0024(5) -.0010(7) 0.0012(8) 0.0006(4)
O11 O2- 0.006(2) 0.0017(4) 0.0023(5) 0.0004(6) 0.0006(7) 0.0001(4)
O12 O2- 0.007(2) 0.0022(4) 0.0013(4) 0.0018(6) 0.0011(7) 0.0001(3)
O13 O2- 0.006(2) 0.0027(5) 0.0009(5) -.0004(7) -.0008(8) 0.0001(4)
O14 O2- 0.007(2) 0.0020(5) 0.0029(6) 0.0001(7) 0.0011(9) -.0003(4)
O15 O2- 0.008(2) 0.0035(6) 0.0023(6) 0.0005(9) -.0005(9) 0.0003(5)
O16 O2- 0.006(2) 0.0020(5) 0.0027(6) -.0001(7) -.0016(9) -.0013(4)
#End of TTdata_86326-ICSD