
#(C) 2019 by FIZ Karlsruhe - Leibniz Institute for Information Infrastructure.  All rights reserved.
data_86323-ICSD
_database_code_ICSD 86323
_audit_creation_date 1999-11-30
_chemical_name_systematic
'Calcium sodium aluminium silicon oxide (0.89/0.11/1.89/2.11/8)'
_chemical_formula_structural '(Ca0.89 Na0.11) (Al1.89 Si0.11) Si2 O8'
_chemical_formula_sum 'Al1.89 Ca0.89 Na0.11 O8 Si2.11'
_chemical_name_structure_type Feldspar#-(TC,I1-,i28)-Bytownite
_chemical_name_mineral Unnamed_Feldspar
_exptl_crystal_density_diffrn 2.75
_publ_section_title

;
Structural variation associated with compositional variation and
order-disorder behavior in anorthite-rich feldspars
;
loop_
_citation_id
_citation_journal_full
_citation_year
_citation_journal_volume
_citation_page_first
_citation_page_last
_citation_journal_id_ASTM
primary 'American Mineralogist' 1990 75 150 162 AMMIAY
loop_
_publ_author_name
'Angel, R.J.'
'Carpenter, M.A.'
'Finger, L.W.'
_cell_length_a 8.178(1)
_cell_length_b 12.869(1)
_cell_length_c 14.178(1)
_cell_angle_alpha 93.30(1)
_cell_angle_beta 116.02(1)
_cell_angle_gamma 90.97(1)
_cell_volume 1337.19
_cell_formula_units_Z 8
_symmetry_space_group_name_H-M 'I -1'
_symmetry_Int_Tables_number 2
_refine_ls_R_factor_all 0.05
loop_
_symmetry_equiv_pos_site_id
_symmetry_equiv_pos_as_xyz
1 '-x, -y, -z'
2 'x, y, z'
3 '-x+1/2, -y+1/2, -z+1/2'
4 'x+1/2, y+1/2, z+1/2'
loop_
_atom_type_symbol
_atom_type_oxidation_number
Ca2+ 2
Na1+ 1
Ca2+ 2
Na1+ 1
Ca2+ 2
Na1+ 1
Ca2+ 2
Na1+ 1
Si4+ 4
Al3+ 3
Si4+ 4
Al3+ 3
Si4+ 4
Al3+ 3
Si4+ 4
Al3+ 3
Si4+ 4
O2- -2
loop_
_atom_site_label
_atom_site_type_symbol
_atom_site_symmetry_multiplicity
_atom_site_Wyckoff_symbol
_atom_site_fract_x
_atom_site_fract_y
_atom_site_fract_z
_atom_site_B_iso_or_equiv
_atom_site_occupancy
_atom_site_attached_hydrogens
Ca1 Ca2+ 4 i 0.2667(3) 0.9850(3) 0.0869(2) . 0.473(6) 0
Na1 Na1+ 4 i 0.2667(3) 0.9850(3) 0.0869(2) . 0.083(1) 0
Ca2 Ca2+ 4 i 0.2674(3) 0.0298(5) 0.5465(6) . 0.692(3) 0
Na2 Na1+ 4 i 0.2674(3) 0.0298(5) 0.5465(6) . 0.068(1) 0
Ca3 Ca2+ 4 i 0.7743(4) 0.5345(3) 0.5446(3) . 0.377(6) 0
Na3 Na1+ 4 i 0.7743(4) 0.5345(3) 0.5446(3) . 0.067(1) 0
Ca4 Ca2+ 4 i 0.765(1) 0.500(2) 0.078(2) . 0.218(3) 0
Na4 Na1+ 4 i 0.765(1) 0.500(2) 0.078(2) . 0.022(1) 0
Si1 Si4+ 4 i 0.0075(2) 0.1582(1) 0.1041(1) . 1. 0
Al1 Al3+ 4 i 0.0022(2) 0.1645(1) 0.6112(1) . 0.945 0
Si2 Si4+ 4 i 0.0022(2) 0.1645(1) 0.6112(1) . 0.055 0
Al2 Al3+ 4 i -.0004(2) 0.8155(1) 0.1190(1) . 0.945 0
Si3 Si4+ 4 i -.0004(2) 0.8155(1) 0.1190(1) . 0.055 0
Si4 Si4+ 4 i 0.0054(2) 0.8174(1) 0.6121(1) . 1. 0
Al3 Al3+ 4 i 0.6875(2) 0.1117(1) 0.1576(1) . 0.945 0
Si5 Si4+ 4 i 0.6875(2) 0.1117(1) 0.1576(1) . 0.055 0
Si6 Si4+ 4 i 0.6777(2) 0.1057(1) 0.6588(1) . 1. 0
Si7 Si4+ 4 i 0.6770(2) 0.8815(1) 0.1820(1) . 1. 0
Al4 Al3+ 4 i 0.6830(2) 0.8750(1) 0.6758(1) . 0.945 0
Si8 Si4+ 4 i 0.6830(2) 0.8750(1) 0.6758(1) . 0.055 0
O1 O2- 4 i 0.0108(5) 0.1251(3) -.0079(3) . 1. 0
O2 O2- 4 i 0.9929(5) 0.1263(3) 0.4884(3) . 1. 0
O3 O2- 4 i 0.5774(4) 0.9901(2) 0.1402(3) . 1. 0
O4 O2- 4 i 0.5728(5) 0.9908(2) 0.6372(3) . 1. 0
O5 O2- 4 i 0.8193(5) 0.1006(3) 0.0899(3) . 1. 0
O6 O2- 4 i 0.8016(5) 0.1011(3) 0.5962(3) . 1. 0
O7 O2- 4 i 0.8104(6) 0.8552(3) 0.1294(4) . 1. 0
O8 O2- 4 i 0.8204(5) 0.8556(3) 0.6133(3) . 1. 0
O9 O2- 4 i 0.0124(5) 0.2791(3) 0.1356(3) . 1. 0
O10 O2- 4 i 0.0145(5) 0.2944(3) 0.6480(3) . 1. 0
O11 O2- 4 i 0.0091(5) 0.6805(3) 0.1080(3) . 1. 0
O12 O2- 4 i 0.0086(5) 0.6914(3) 0.5996(3) . 1. 0
O13 O2- 4 i 0.1893(5) 0.1061(3) 0.1878(3) . 1. 0
O14 O2- 4 i 0.2038(6) 0.1038(3) 0.6902(3) . 1. 0
O15 O2- 4 i 0.2002(5) 0.8687(3) 0.2181(3) . 1. 0
O16 O2- 4 i 0.1820(6) 0.8620(3) 0.7125(3) . 1. 0
loop_
_atom_site_aniso_label
_atom_site_aniso_type_symbol
_atom_site_aniso_beta_11
_atom_site_aniso_beta_22
_atom_site_aniso_beta_33
_atom_site_aniso_beta_12
_atom_site_aniso_beta_13
_atom_site_aniso_beta_23
Ca1 Ca2+ 0.0031(5) 0.0048(2) 0.0027(1) -.0013(2) 0.0011(2) -.0019(2)
Na1 Na1+ 0.0031(5) 0.0048(2) 0.0027(1) -.0013(2) 0.0011(2) -.0019(1)
Ca2 Ca2+ 0.0028(3) 0.0019(2) 0.0017(2) 0.0005(1) 0.0004(2) -.0003(2)
Na2 Na1+ 0.0028(3) 0.0019(2) 0.0017(2) 0.0005(2) 0.0004(2) -.0003(2)
Ca3 Ca2+ 0.0046(6) 0.0020(2) 0.0020(2) 0.0007(2) 0.0007(3) -.0007(2)
Na3 Na1+ 0.0046(6) 0.0020(1) 0.0020(2) 0.0007(2) 0.0007(3) -.0007(2)
Ca4 Ca2+ 0.004(1) 0.0034(6) 0.0016(7) 0.0003(6) 0.0010(6) -.0008(7)
Na4 Na1+ 0.004(1) 0.0034(6) 0.0016(7) 0.0003(6) 0.0010(6) -.0008(7)
Si1 Si4+ 0.0027(3) 0.0010(1) 0.0008(1) -.0004(1) 0.0005(1) 0.0000(1)
Al1 Al3+ 0.0036(3) 0.0010(1) 0.0009(1) -.0001(1) 0.0008(1) -.0001(1)
Si2 Si4+ 0.0036(3) 0.0010(1) 0.0009(1) -.0001(1) 0.0008(1) -.0001(1)
Al2 Al3+ 0.0034(3) 0.0010(1) 0.0010(1) 0.0000(1) 0.0008(1) 0.0000(1)
Si3 Si4+ 0.0034(3) 0.0010(1) 0.0010(1) 0.0000(1) 0.0008(1) 0.0000(1)
Si4 Si4+ 0.0034(3) 0.0011(1) 0.0009(1) 0.0003(1) 0.0006(1) 0.0001(1)
Al3 Al3+ 0.0032(3) 0.0009(1) 0.0015(1) 0.0001(1) 0.0005(1) 0.0001(1)
Si5 Si4+ 0.0032(3) 0.0009(1) 0.0015(1) 0.0001(1) 0.0005(1) 0.0001(1)
Si6 Si4+ 0.0027(3) 0.0007(1) 0.0017(1) -.0002(1) 0.0008(1) -.0001(1)
Si7 Si4+ 0.0026(3) 0.0006(1) 0.0015(1) 0.0000(1) 0.0004(1) 0.0002(1)
Al4 Al3+ 0.0032(3) 0.0009(1) 0.0014(1) 0.0002(1) 0.0009(1) 0.0002(1)
Si8 Si4+ 0.0032(3) 0.0009(1) 0.0014(1) 0.0002(1) 0.0009(1) 0.0002(1)
O1 O2- 0.0083(8) 0.0019(2) 0.0011(2) -.0002(3) 0.0017(3) 0.0000(2)
O2 O2- 0.0093(9) 0.0016(2) 0.0017(2) 0.0008(3) 0.0027(4) 0.0002(2)
O3 O2- 0.0037(7) 0.0011(2) 0.0018(2) 0.0003(3) 0.0005(3) 0.0002(2)
O4 O2- 0.0028(7) 0.0005(2) 0.0021(2) -.0002(3) 0.0007(3) 0.0002(2)
O5 O2- 0.0044(8) 0.0015(2) 0.0034(3) -.0013(3) 0.0028(4) -.0007(2)
O6 O2- 0.0056(8) 0.0013(2) 0.0042(3) -.0001(3) 0.0039(4) -.0005(2)
O7 O2- 0.0076(9) 0.0022(2) 0.0062(3) -.0001(3) 0.0053(5) -.0005(2)
O8 O2- 0.0065(8) 0.0019(2) 0.0046(3) 0.0009(3) 0.0039(4) 0.0003(2)
O9 O2- 0.0044(7) 0.0011(2) 0.0023(2) -.0006(3) 0.0011(3) -.0002(2)
O10 O2- 0.0051(7) 0.0011(2) 0.0023(2) -.0008(2) 0.0018(3) -.0004(2)
O11 O2- 0.0052(7) 0.0010(2) 0.0019(2) 0.0004(3) 0.0010(3) 0.0003(2)
O12 O2- 0.0067(8) 0.0010(2) 0.0016(2) 0.0002(3) 0.0008(3) -.0001(2)
O13 O2- 0.0042(7) 0.0020(2) 0.0014(2) 0.0000(3) -.0007(3) 0.0000(2)
O14 O2- 0.0074(8) 0.0013(3) 0.0025(2) 0.0003(3) -.0001(4) 0.0003(2)
O15 O2- 0.0050(8) 0.0018(2) 0.0030(3) -.0002(3) -.0014(4) -.0010(2)
O16 O2- 0.0082(9) 0.0024(3) 0.0027(3) 0.0000(4) -.0017(4) -.0010(2)
#End of TTdata_86323-ICSD