
#(C) 2019 by FIZ Karlsruhe - Leibniz Institute for Information Infrastructure.  All rights reserved.
data_86321-ICSD
_database_code_ICSD 86321
_audit_creation_date 1999-11-30
_chemical_name_systematic
'Calcium sodium aluminium silicon oxide (0.98/0.02/1.98/2.02/8)'
_chemical_formula_structural '(Ca0.98 Na0.02) (Al1.98 Si0.02) Si2 O8'
_chemical_formula_sum 'Al1.98 Ca0.98 Na0.02 O8 Si2.02'
_chemical_name_structure_type Feldspar#-(TC,I1-,i28)-Bytownite
_chemical_name_mineral Anorthite
_exptl_crystal_density_diffrn 2.76
_publ_section_title

;
Structural variation associated with compositional variation and
order-disorder behavior in anorthite-rich feldspars
;
loop_
_citation_id
_citation_journal_full
_citation_year
_citation_journal_volume
_citation_page_first
_citation_page_last
_citation_journal_id_ASTM
primary 'American Mineralogist' 1990 75 150 162 AMMIAY
loop_
_publ_author_name
'Angel, R.J.'
'Carpenter, M.A.'
'Finger, L.W.'
_cell_length_a 8.1796(5)
_cell_length_b 12.8747(8)
_cell_length_c 14.172(1)
_cell_angle_alpha 93.134(6)
_cell_angle_beta 115.885(5)
_cell_angle_gamma 91.236(5)
_cell_volume 1338.99
_cell_formula_units_Z 8
_symmetry_space_group_name_H-M 'I -1'
_symmetry_Int_Tables_number 2
_refine_ls_R_factor_all 0.054
loop_
_symmetry_equiv_pos_site_id
_symmetry_equiv_pos_as_xyz
1 '-x, -y, -z'
2 'x, y, z'
3 '-x+1/2, -y+1/2, -z+1/2'
4 'x+1/2, y+1/2, z+1/2'
loop_
_atom_type_symbol
_atom_type_oxidation_number
Ca2+ 2
Na1+ 1
Ca2+ 2
Na1+ 1
Ca2+ 2
Si4+ 4
Al3+ 3
Si4+ 4
Al3+ 3
Si4+ 4
Al3+ 3
Si4+ 4
Al3+ 3
Si4+ 4
O2- -2
loop_
_atom_site_label
_atom_site_type_symbol
_atom_site_symmetry_multiplicity
_atom_site_Wyckoff_symbol
_atom_site_fract_x
_atom_site_fract_y
_atom_site_fract_z
_atom_site_B_iso_or_equiv
_atom_site_occupancy
_atom_site_attached_hydrogens
Ca1 Ca2+ 4 i 0.2659(3) 0.9861(2) 0.0869(2) . 0.460(5) 0
Na1 Na1+ 4 i 0.2659(3) 0.9861(2) 0.0869(2) . 0.014 0
Ca2 Ca2+ 4 i 0.2681(4) 0.0304(6) 0.5450(8) . 0.5 0
Ca3 Ca2+ 4 i 0.7735(3) 0.5353(2) 0.5422(8) . 0.510(5) 0
Na2 Na1+ 4 i 0.7735(3) 0.5353(2) 0.5422(2) . 0.016 0
Ca4 Ca2+ 4 i 0.7637(5) 0.508(1) 0.077(1) . 0.5 0
Si1 Si4+ 4 i 0.0080(2) 0.1577(1) 0.1042(1) . 1. 0
Al1 Al3+ 4 i 0.0028(2) 0.1635(1) 0.6119(1) . 0.99 0
Si2 Si4+ 4 i 0.0028(2) 0.1635(1) 0.6119(1) . 0.01 0
Al2 Al3+ 4 i -.0004(2) 0.8148(1) 0.1194(1) . 0.99 0
Si3 Si4+ 4 i -.0004(2) 0.8148(1) 0.1194(1) . 0.01 0
Si4 Si4+ 4 i 0.0052(2) 0.8178(1) 0.6116(1) . 1. 0
Al3 Al3+ 4 i 0.6882(2) 0.1123(1) 0.1595(1) . 0.99 0
Si5 Si4+ 4 i 0.6882(2) 0.1123(1) 0.1595(1) . 0.01 0
Si6 Si4+ 4 i 0.6764(2) 0.1052(1) 0.6572(1) . 1. 0
Si7 Si4+ 4 i 0.6754(2) 0.8812(1) 0.1806(1) . 1. 0
Al4 Al3+ 4 i 0.6838(2) 0.8749(1) 0.6772(1) . 0.99 0
Si8 Si4+ 4 i 0.6838(2) 0.8749(1) 0.6772(1) . 0.01 0
O1 O2- 4 i 0.0071(6) 0.1244(3) -.0094(3) . 1. 0
O2 O2- 4 i -.0011(6) 0.1253(3) 0.4902(3) . 1. 0
O3 O2- 4 i 0.5743(5) 0.9893(2) 0.1391(3) . 1. 0
O4 O2- 4 i 0.5728(5) -.0094(2) 0.6382(3) . 1. 0
O5 O2- 4 i 0.8226(6) 0.0988(3) 0.0922(3) . 1. 0
O6 O2- 4 i 0.7994(6) 0.1005(3) 0.5934(3) . 1. 0
O7 O2- 4 i 0.8072(6) 0.8555(3) 0.1266(4) . 1. 0
O8 O2- 4 i 0.8247(5) 0.8553(3) 0.6170(3) . 1. 0
O9 O2- 4 i 0.0124(5) 0.2783(2) 0.1356(3) . 1. 0
O10 O2- 4 i 0.0141(5) 0.2935(3) 0.6485(3) . 1. 0
O11 O2- 4 i 0.0076(5) 0.6800(2) 0.1072(3) . 1. 0
O12 O2- 4 i 0.0083(5) 0.6921(2) 0.6001(3) . 1. 0
O13 O2- 4 i 0.1919(5) 0.1066(2) 0.1855(3) . 1. 0
O14 O2- 4 i 0.2042(6) 0.1034(3) 0.6926(3) . 1. 0
O15 O2- 4 i 0.1937(6) 0.8684(3) 0.2207(3) . 1. 0
O16 O2- 4 i 0.1864(6) 0.8629(3) 0.7083(3) . 1. 0
loop_
_atom_site_aniso_label
_atom_site_aniso_type_symbol
_atom_site_aniso_beta_11
_atom_site_aniso_beta_22
_atom_site_aniso_beta_33
_atom_site_aniso_beta_12
_atom_site_aniso_beta_13
_atom_site_aniso_beta_23
Ca1 Ca2+ 0.0020(4) 0.0029(2) 0.0015(2) -.0002(2) 0.0007(2) -.0009(1)
Na1 Na1+ 0.0020(4) 0.0029(2) 0.0015(1) -.0002(2) 0.0007(2) -.0009(1)
Ca2 Ca2+ 0.0020(3) 0.0017(2) 0.0013(3) 0.0008(2) 0.0001(2) -.0003(2)
Ca3 Ca2+ 0.0020(3) 0.0017(2) 0.0013(3) 0.0008(2) 0.0001(2) -.0003(2)
Na2 Na1+ 0.0023(4) 0.0015(1) 0.0013(1) 0.0006(2) 0.0004(2) -.0002(1)
Ca4 Ca2+ 0.0026(5) 0.0023(4) 0.0011(4) 0.0006(3) 0.0002(3) -.0007(3)
Si1 Si4+ 0.0025(3) 0.0009(1) 0.0007(1) 0.0000(8) 0.0007(1) 0.0000(1)
Al1 Al3+ 0.0024(2) 0.0009(1) 0.0008(1) -.0002(1) 0.0007(1) 0.0000(1)
Si2 Si4+ 0.0024(2) 0.0009(1) 0.0008(1) -.0002(1) 0.0007(1) 0.0000(1)
Al2 Al3+ 0.0034(2) 0.0008(1) 0.0007(1) 0.0002(1) 0.0008(1) 0.0000(1)
Si3 Si4+ 0.0034(2) 0.0008(1) 0.0007(1) 0.0002(1) 0.0008(1) 0.0000(1)
Si4 Si4+ 0.0024(3) 0.0009(1) 0.0007(1) 0.0005(1) 0.0005(1) 0.0000(1)
Al3 Al3+ 0.0022(3) 0.0008(1) 0.0019(1) 0.0001(1) 0.0009(1) -.0001(1)
Si5 Si4+ 0.0022(3) 0.0008(1) 0.0019(1) 0.0001(1) 0.0009(1) -.0001(1)
Si6 Si4+ 0.0022(3) 0.0007(1) 0.0020(1) -.0003(1) 0.0012(2) -.0003(1)
Si7 Si4+ 0.0018(2) 0.0007(1) 0.0018(1) 0.0003(1) 0.0005(1) 0.0003(1)
Al4 Al3+ 0.0021(2) 0.0009(1) 0.0011(1) 0.0004(1) 0.0005(1) 0.0003(1)
Si8 Si4+ 0.0021(2) 0.0009(1) 0.0011(1) 0.0004(1) 0.0005(1) 0.0003(1)
O1 O2- 0.0101(9) 0.0015(2) 0.0010(2) -.0002(3) 0.0023(3) -.0001(2)
O2 O2- 0.0114(9) 0.0012(2) 0.0018(2) 0.0001(3) 0.0036(4) 0.0000(2)
O3 O2- 0.0016(7) 0.0009(2) 0.0016(2) 0.0001(3) 0.0003(3) 0.0003(2)
O4 O2- 0.0020(7) 0.0008(2) 0.0016(2) 0.0008(3) 0.0007(3) 0.0002(1)
O5 O2- 0.0053(7) 0.0010(2) 0.0047(3) -.0007(3) 0.0039(4) -.0010(2)
O6 O2- 0.0059(8) 0.0016(2) 0.0047(3) -.0015(3) 0.0044(4) -.0012(2)
O7 O2- 0.0071(9) 0.0018(2) 0.0083(4) 0.0000(4) 0.0065(5) -.0009(3)
O8 O2- 0.0081(9) 0.0022(2) 0.0060(4) 0.0022(4) 0.0062(5) 0.0012(2)
O9 O2- 0.0035(7) 0.0008(2) 0.0015(2) -.0003(3) 0.0009(3) -.0003(1)
O10 O2- 0.0050(7) 0.0008(2) 0.0021(2) -.0008(3) 0.0015(3) -.0004(2)
O11 O2- 0.0049(7) 0.0008(2) 0.0018(2) 0.0004(2) 0.0012(3) 0.0001(1)
O12 O2- 0.0038(7) 0.0013(2) 0.0012(2) 0.0004(2) 0.0004(3) -.0004(1)
O13 O2- 0.0038(6) 0.0017(2) 0.0017(2) 0.0012(3) -.0013(3) 0.0000(2)
O14 O2- 0.0073(9) 0.0014(2) 0.0023(2) 0.0003(3) -.0013(4) 0.0003(2)
O15 O2- 0.0040(6) 0.0024(2) 0.0038(3) 0.0007(3) -.0019(3) -.0016(2)
O16 O2- 0.0070(9) 0.0029(3) 0.0035(3) 0.0022(4) -.0042(4) -.0020(2)
#End of TTdata_86321-ICSD