
#(C) 2019 by FIZ Karlsruhe - Leibniz Institute for Information Infrastructure.  All rights reserved.
data_86327-ICSD
_database_code_ICSD 86327
_audit_creation_date 1999-11-30
_chemical_name_systematic
'Calcium sodium aluminium silicon oxide (0.68/0.32/1.68/2.32/8)'
_chemical_formula_structural '(Ca0.68 Na0.32) (Al1.68 Si0.32) Si2 O8'
_chemical_formula_sum 'Al1.68 Ca0.68 Na0.32 O8 Si2.32'
_chemical_name_structure_type Feldspar#-(TC,I1-,i28)-Bytownite
_chemical_name_mineral Unnamed_Feldspar
_exptl_crystal_density_diffrn 2.71
_publ_section_title

;
Structural variation associated with compositional variation and
order-disorder behavior in anorthite-rich feldspars
;
loop_
_citation_id
_citation_journal_full
_citation_year
_citation_journal_volume
_citation_page_first
_citation_page_last
_citation_journal_id_ASTM
primary 'American Mineralogist' 1990 75 150 162 AMMIAY
loop_
_publ_author_name
'Angel, R.J.'
'Carpenter, M.A.'
'Finger, L.W.'
_cell_length_a 8.173(1)
_cell_length_b 12.869(1)
_cell_length_c 14.200(1)
_cell_angle_alpha 93.46(1)
_cell_angle_beta 116.06(1)
_cell_angle_gamma 90.54(1)
_cell_volume 1338.17
_cell_formula_units_Z 8
_symmetry_space_group_name_H-M 'I -1'
_symmetry_Int_Tables_number 2
_refine_ls_R_factor_all 0.048
loop_
_symmetry_equiv_pos_site_id
_symmetry_equiv_pos_as_xyz
1 '-x, -y, -z'
2 'x, y, z'
3 '-x+1/2, -y+1/2, -z+1/2'
4 'x+1/2, y+1/2, z+1/2'
loop_
_atom_type_symbol
_atom_type_oxidation_number
Ca2+ 2
Na1+ 1
Ca2+ 2
Na1+ 1
Ca2+ 2
Na1+ 1
Ca2+ 2
Na1+ 1
Si4+ 4
Al3+ 3
Si4+ 4
Al3+ 3
Si4+ 4
Al3+ 3
Si4+ 4
Al3+ 3
Si4+ 4
O2- -2
loop_
_atom_site_label
_atom_site_type_symbol
_atom_site_symmetry_multiplicity
_atom_site_Wyckoff_symbol
_atom_site_fract_x
_atom_site_fract_y
_atom_site_fract_z
_atom_site_B_iso_or_equiv
_atom_site_occupancy
_atom_site_attached_hydrogens
Ca1 Ca2+ 4 i 0.2675(5) 0.9834(7) 0.0849(5) . 0.317(1) 0
Na1 Na1+ 4 i 0.2675(5) 0.9834(7) 0.0849(5) . 0.171(1) 0
Ca2 Ca2+ 4 i 0.2691(4) 0.0291(5) 0.5487(5) . 0.465(2) 0
Na2 Na1+ 4 i 0.2691(4) 0.0291(5) 0.5487(5) . 0.190(1) 0
Ca3 Ca2+ 4 i 0.7747(5) 0.5329(4) 0.5463(4) . 0.333(1) 0
Na3 Na1+ 4 i 0.7747(5) 0.5329(4) 0.5463(4) . 0.179(1) 0
Ca4 Ca2+ 4 i 0.7649(9) 0.489(2) 0.081(1) . 0.245(2) 0
Na4 Na1+ 4 i 0.7649(9) 0.489(2) 0.081(1) . 0.100(1) 0
Si1 Si4+ 4 i 0.0076(2) 0.1607(1) 0.1053(1) . 1. 0
Al1 Al3+ 4 i 0.0043(2) 0.1649(1) 0.6098(1) . 0.84 0
Si2 Si4+ 4 i 0.0043(2) 0.1649(1) 0.6098(1) . 0.16 0
Al2 Al3+ 4 i 0.0011(2) 0.8156(1) 0.1180(1) . 0.84 0
Si3 Si4+ 4 i 0.0011(2) 0.8156(1) 0.1180(1) . 0.16 0
Si4 Si4+ 4 i 0.0046(2) 0.8170(1) 0.6133(1) . 1. 0
Al3 Al3+ 4 i 0.6878(2) 0.1109(1) 0.1585(1) . 0.84 0
Si5 Si4+ 4 i 0.6878(2) 0.1109(1) 0.1585(1) . 0.16 0
Si6 Si4+ 4 i 0.6811(2) 0.1068(1) 0.6587(1) . 1. 0
Si7 Si4+ 4 i 0.6787(2) 0.8808(1) 0.1802(1) . 1. 0
Al4 Al3+ 4 i 0.6829(2) 0.8764(1) 0.6774(1) . 0.84 0
Si8 Si4+ 4 i 0.6829(2) 0.8764(1) 0.6774(1) . 0.16 0
O1 O2- 4 i 0.0072(6) 0.1287(3) -.0089(3) . 1. 0
O2 O2- 4 i 0.9982(6) 0.1279(3) 0.4889(3) . 1. 0
O3 O2- 4 i 0.5802(5) 0.9912(3) 0.1397(3) . 1. 0
O4 O2- 4 i 0.5776(5) 0.9914(3) 0.6387(3) . 1. 0
O5 O2- 4 i 0.8190(6) 0.1028(3) 0.0930(3) . 1. 0
O6 O2- 4 i 0.8056(6) 0.1034(3) 0.5952(3) . 1. 0
O7 O2- 4 i 0.8108(6) 0.8536(3) 0.1256(4) . 1. 0
O8 O2- 4 i 0.8195(6) 0.8537(3) 0.6179(4) . 1. 0
O9 O2- 4 i 0.0133(6) 0.2837(3) 0.1371(3) . 1. 0
O10 O2- 4 i 0.0156(6) 0.2945(3) 0.6454(3) . 1. 0
O11 O2- 4 i 0.0112(6) 0.6825(3) 0.1083(3) . 1. 0
O12 O2- 4 i 0.0121(6) 0.6905(3) 0.6028(3) . 1. 0
O13 O2- 4 i 0.1937(6) 0.1086(3) 0.1892(3) . 1. 0
O14 O2- 4 i 0.2008(6) 0.1049(3) 0.6924(3) . 1. 0
O15 O2- 4 i 0.1934(6) 0.8676(3) 0.2177(3) . 1. 0
O16 O2- 4 i 0.1869(6) 0.8640(3) 0.7133(3) . 1. 0
loop_
_atom_site_aniso_label
_atom_site_aniso_type_symbol
_atom_site_aniso_beta_11
_atom_site_aniso_beta_22
_atom_site_aniso_beta_33
_atom_site_aniso_beta_12
_atom_site_aniso_beta_13
_atom_site_aniso_beta_23
Ca1 Ca2+ 0.0046(7) 0.0083(6) 0.0037(4) -.0026(4) 0.0021(4) -.0036(4)
Na1 Na1+ 0.0046(7) 0.0083(6) 0.0037(4) -.0026(4) 0.0021(4) -.0036(4)
Ca2 Ca2+ 0.0038(4) 0.0031(2) 0.0021(2) 0.0011(2) 0.0003(2) -.0007(2)
Na2 Na1+ 0.0038(4) 0.0031(2) 0.0021(2) 0.0011(2) 0.0003(2) -.0007(2)
Ca3 Ca2+ 0.0057(6) 0.0033(3) 0.0027(2) 0.0016(3) 0.0012(3) -.0007(2)
Na3 Na1+ 0.0057(6) 0.0033(3) 0.0027(2) 0.0016(3) 0.0012(3) -.0007(2)
Ca4 Ca2+ 0.007(1) 0.009(1) 0.0036(6) 0.0003(7) 0.0024(6) -.0017(8)
Na4 Na1+ 0.007(1) 0.009(1) 0.0036(6) 0.0003(7) 0.0024(6) -.0017(8)
Si1 Si4+ 0.0037(3) 0.0014(1) 0.0013(1) -.0004(1) 0.0010(1) 0.0000(1)
Al1 Al3+ 0.0041(3) 0.0016(1) 0.0010(1) -.0002(1) 0.0008(1) 0.0001(1)
Si2 Si4+ 0.0041(3) 0.0016(1) 0.0010(1) -.0002(1) 0.0008(1) 0.0001(1)
Al2 Al3+ 0.0047(3) 0.0016(1) 0.0011(1) 0.0008(1) 0.0012(2) 0.0001(1)
Si3 Si4+ 0.0047(3) 0.0016(1) 0.0011(1) 0.0008(1) 0.0012(2) 0.0001(1)
Si4 Si4+ 0.0035(3) 0.0017(1) 0.0011(1) 0.0008(1) 0.0007(1) 0.0001(1)
Al3 Al3+ 0.0039(3) 0.0012(1) 0.0016(1) 0.0001(1) 0.0009(1) 0.0001(1)
Si5 Si4+ 0.0039(3) 0.0012(1) 0.0016(1) 0.0001(1) 0.0009(1) 0.0001(1)
Si6 Si4+ 0.0036(3) 0.0013(1) 0.0015(1) 0.0001(1) 0.0009(1) 0.0000(1)
Si7 Si4+ 0.0033(3) 0.0013(1) 0.0014(1) 0.0001(1) 0.0007(1) 0.0002(1)
Al4 Al3+ 0.0039(3) 0.0012(1) 0.0015(1) 0.0004(1) 0.0012(2) 0.0003(1)
Si8 Si4+ 0.0039(3) 0.0012(1) 0.0015(1) 0.0004(1) 0.0012(2) 0.0003(1)
O1 O2- 0.0091(9) 0.0028(3) 0.0013(2) 0.0007(4) 0.0017(4) 0.0002(2)
O2 O2- 0.011(1) 0.0032(3) 0.0019(3) 0.0010(4) 0.0028(5) 0.0006(2)
O3 O2- 0.0049(8) 0.0014(2) 0.0021(3) 0.0008(3) 0.0013(4) 0.0005(2)
O4 O2- 0.0043(8) 0.0015(2) 0.0025(3) -.0006(3) 0.0011(4) 0.0002(2)
O5 O2- 0.0066(8) 0.0020(2) 0.0033(3) -.0007(3) 0.0027(4) -.0001(2)
O6 O2- 0.0076(8) 0.0019(2) 0.0042(3) -.0005(3) 0.0038(4) -.0003(2)
O7 O2- 0.0090(9) 0.0024(3) 0.0056(4) 0.0003(4) 0.0046(5) -.0006(2)
O8 O2- 0.0067(8) 0.0038(3) 0.0051(3) 0.0011(4) 0.0038(5) 0.0000(3)
O9 O2- 0.0085(9) 0.0021(2) 0.0029(3) -.0006(4) 0.0029(4) 0.0000(2)
O10 O2- 0.0056(8) 0.0022(2) 0.0028(3) -.0006(3) 0.0014(4) 0.0001(2)
O11 O2- 0.0050(8) 0.0027(3) 0.0024(3) 0.0011(3) 0.0010(4) 0.0002(2)
O12 O2- 0.0086(9) 0.0020(2) 0.0021(3) 0.0011(4) 0.0012(4) -.0004(2)
O13 O2- 0.0063(9) 0.0026(3) 0.0018(2) 0.0000(4) 0.0008(4) 0.0001(2)
O14 O2- 0.0080(9) 0.0020(2) 0.0020(2) 0.0008(4) 0.0003(4) 0.0002(3)
O15 O2- 0.0075(9) 0.0027(3) 0.0030(3) 0.0008(4) 0.0000(4) -.0001(2)
O16 O2- 0.0069(9) 0.0035(3) 0.0019(3) 0.0005(4) -.0008(4) -.0007(2)
#End of TTdata_86327-ICSD