
#(C) 2019 by FIZ Karlsruhe - Leibniz Institute for Information Infrastructure.  All rights reserved.
data_86322-ICSD
_database_code_ICSD 86322
_audit_creation_date 1999-11-30
_chemical_name_systematic
'Calcium sodium aluminium silicon oxide (0.96/0.04/1.96/2.04/8)'
_chemical_formula_structural '(Ca0.96 Na0.04) (Al1.96 Si0.04) Si2 O8'
_chemical_formula_sum 'Al1.96 Ca0.96 Na0.04 O8 Si2.04'
_chemical_name_structure_type Feldspar#-(TC,I1-,i28)-Bytownite
_chemical_name_mineral Anorthite
_exptl_crystal_density_diffrn 2.76
_publ_section_title

;
Structural variation associated with compositional variation and
order-disorder behavior in anorthite-rich feldspars
;
loop_
_citation_id
_citation_journal_full
_citation_year
_citation_journal_volume
_citation_page_first
_citation_page_last
_citation_journal_id_ASTM
primary 'American Mineralogist' 1990 75 150 162 AMMIAY
loop_
_publ_author_name
'Angel, R.J.'
'Carpenter, M.A.'
'Finger, L.W.'
_cell_length_a 8.178(2)
_cell_length_b 12.870(3)
_cell_length_c 14.175(3)
_cell_angle_alpha 93.17(2)
_cell_angle_beta 115.97(1)
_cell_angle_gamma 91.15(2)
_cell_volume 1337.6
_cell_formula_units_Z 8
_symmetry_space_group_name_H-M 'I -1'
_symmetry_Int_Tables_number 2
_refine_ls_R_factor_all 0.044
loop_
_symmetry_equiv_pos_site_id
_symmetry_equiv_pos_as_xyz
1 '-x, -y, -z'
2 'x, y, z'
3 '-x+1/2, -y+1/2, -z+1/2'
4 'x+1/2, y+1/2, z+1/2'
loop_
_atom_type_symbol
_atom_type_oxidation_number
Ca2+ 2
Na1+ 1
Ca2+ 2
Na1+ 1
Ca2+ 2
Si4+ 4
Al3+ 3
Si4+ 4
Al3+ 3
Si4+ 4
Al3+ 3
Si4+ 4
Al3+ 3
Si4+ 4
O2- -2
loop_
_atom_site_label
_atom_site_type_symbol
_atom_site_symmetry_multiplicity
_atom_site_Wyckoff_symbol
_atom_site_fract_x
_atom_site_fract_y
_atom_site_fract_z
_atom_site_B_iso_or_equiv
_atom_site_occupancy
_atom_site_attached_hydrogens
Ca1 Ca2+ 4 i 0.2658(2) 0.9859(2) 0.0865(2) . 0.462(4) 0
Na1 Na1+ 4 i 0.2658(2) 0.9859(2) 0.0865(2) . 0.046(1) 0
Ca2 Ca2+ 4 i 0.2681(3) 0.0301(4) 0.5459(5) . 0.67(2) 0
Ca3 Ca2+ 4 i 0.7737(2) 0.5350(2) 0.5429(2) . 0.448(4) 0
Na3 Na1+ 4 i 0.7737(2) 0.5350(2) 0.5429(2) . 0.044(1) 0
Ca4 Ca2+ 4 i 0.7636(5) 0.502(1) 0.077(1) . 0.33(2) 0
Si1 Si4+ 4 i 0.0078(1) 0.1580(1) 0.1042(1) . 1. 0
Al1 Al3+ 4 i 0.0025(2) 0.1642(1) 0.6119(1) . 0.98 0
Si2 Si4+ 4 i 0.0025(2) 0.1642(1) 0.6119(1) . 0.02 0
Al2 Al3+ 4 i -.0001(2) 0.8151(1) 0.1194(1) . 0.98 0
Si3 Si4+ 4 i -.0001(2) 0.8151(1) 0.1194(1) . 0.02 0
Si4 Si4+ 4 i 0.0054(1) 0.8176(1) 0.6120(1) . 1. 0
Al3 Al3+ 4 i 0.6879(2) 0.1120(1) 0.1588(1) . 0.98 0
Si5 Si4+ 4 i 0.6879(2) 0.1120(1) 0.1588(1) . 0.02 0
Si6 Si4+ 4 i 0.6765(1) 0.1054(1) 0.6577(1) . 1. 0
Si7 Si4+ 4 i 0.6760(1) 0.8815(1) 0.1813(1) . 1. 0
Al4 Al3+ 4 i 0.6831(2) 0.8748(1) 0.6766(1) . 0.98 0
Si8 Si4+ 4 i 0.6831(2) 0.8748(1) 0.6766(1) . 0.02 0
O1 O2- 4 i 0.0076(4) 0.1247(2) -.0087(2) . 1. 0
O2 O2- 4 i -.0035(4) 0.1248(2) 0.4893(2) . 1. 0
O3 O2- 4 i 0.5756(4) 0.9901(2) 0.1396(2) . 1. 0
O4 O2- 4 i 0.5717(3) 0.9910(2) 0.6376(2) . 1. 0
O5 O2- 4 i 0.8216(4) 0.0994(2) 0.0910(3) . 1. 0
O6 O2- 4 i 0.7994(4) 0.1006(2) 0.5936(3) . 1. 0
O7 O2- 4 i 0.8088(4) 0.8549(2) 0.1282(3) . 1. 0
O8 O2- 4 i 0.8224(4) 0.8550(2) 0.6153(3) . 1. 0
O9 O2- 4 i 0.0120(4) 0.2787(2) 0.1353(2) . 1. 0
O10 O2- 4 i 0.0144(4) 0.2941(2) 0.6484(2) . 1. 0
O11 O2- 4 i 0.0076(4) 0.6799(2) 0.1073(2) . 1. 0
O12 O2- 4 i 0.0078(4) 0.6920(2) 0.5995(2) . 1. 0
O13 O2- 4 i 0.1910(4) 0.1065(2) 0.1869(2) . 1. 0
O14 O2- 4 i 0.2029(4) 0.1035(2) 0.6915(2) . 1. 0
O15 O2- 4 i 0.1976(4) 0.8685(2) 0.2193(3) . 1. 0
O16 O2- 4 i 0.1854(5) 0.8625(3) 0.7105(3) . 1. 0
loop_
_atom_site_aniso_label
_atom_site_aniso_type_symbol
_atom_site_aniso_beta_11
_atom_site_aniso_beta_22
_atom_site_aniso_beta_33
_atom_site_aniso_beta_12
_atom_site_aniso_beta_13
_atom_site_aniso_beta_23
Ca1 Ca2+ 0.0036(3) 0.0038(2) 0.0019(1) -.0002(2) 0.0013(2) -.0011(1)
Na1 Na1+ 0.0036(3) 0.0038(2) 0.0019(1) -.0002(2) 0.0013(2) -.0011(1)
Ca2 Ca2+ 0.0033(2) 0.0020(1) 0.0016(2) 0.0007(1) 0.0007(1) -.0003(1)
Ca3 Ca2+ 0.0034(3) 0.0020(1) 0.0015(1) 0.0009(1) 0.0007(2) -.0003(1)
Na3 Na1+ 0.0034(3) 0.0020(1) 0.0015(1) 0.0009(1) 0.0007(2) -.0003(1)
Ca4 Ca2+ 0.0029(5) 0.0025(4) 0.0017(4) 0.0006(3) 0.0010(3) -.0006(3)
Si1 Si4+ 0.0027(2) 0.0010(1) 0.0008(1) -.0001(1) 0.0008(1) 0.0001(1)
Al1 Al3+ 0.0028(2) 0.0010(1) 0.0008(1) -.0002(1) 0.0008(1) 0.0000(1)
Si2 Si4+ 0.0028(2) 0.0010(1) 0.0008(1) -.0002(1) 0.0008(1) 0.0000(1)
Al2 Al3+ 0.0038(2) 0.0010(1) 0.0008(1) 0.0005(1) 0.0011(1) 0.0001(1)
Si3 Si4+ 0.0038(2) 0.0010(1) 0.0008(1) 0.0005(1) 0.0011(1) 0.0001(1)
Si4 Si4+ 0.0029(2) 0.0010(1) 0.0008(1) 0.0005(1) 0.0007(1) 0.0001(1)
Al3 Al3+ 0.0025(2) 0.0008(1) 0.0019(1) 0.0001(1) 0.0010(1) 0.0000(1)
Si5 Si4+ 0.0025(2) 0.0008(1) 0.0019(1) 0.0001(1) 0.0010(1) 0.0000(1)
Si6 Si4+ 0.0026(2) 0.0009(1) 0.0018(1) 0.0000(1) 0.0012(1) -.0002(1)
Si7 Si4+ 0.0025(2) 0.0009(1) 0.0017(1) 0.0003(1) 0.0006(1) 0.0003(1)
Al4 Al3+ 0.0029(2) 0.0009(1) 0.0012(1) 0.0004(1) 0.0011(1) 0.0003(1)
Si8 Si4+ 0.0029(2) 0.0009(1) 0.0012(1) 0.0004(1) 0.0011(1) 0.0003(1)
O1 O2- 0.0110(7) 0.0018(2) 0.0011(2) 0.0009(3) 0.0027(3) 0.0002(1)
O2 O2- 0.0115(7) 0.0015(2) 0.0016(2) 0.0002(3) 0.0036(3) 0.0001(1)
O3 O2- 0.0035(5) 0.0010(1) 0.0018(2) 0.0004(2) 0.0012(2) 0.0003(1)
O4 O2- 0.0019(4) 0.0009(1) 0.0016(2) 0.0002(2) 0.0007(2) 0.0002(1)
O5 O2- 0.0052(5) 0.0015(2) 0.0043(2) -.0009(2) 0.0038(3) -.0007(2)
O6 O2- 0.0071(6) 0.0015(2) 0.0051(2) -.0008(2) 0.0053(3) -.0009(2)
O7 O2- 0.0061(6) 0.0021(2) 0.0074(3) 0.0005(3) 0.0052(4) -.0005(2)
O8 O2- 0.0083(8) 0.0024(2) 0.0062(3) 0.0013(3) 0.0062(4) 0.0007(2)
O9 O2- 0.0051(5) 0.0009(1) 0.0021(2) -.0004(2) 0.0018(3) -.0004(1)
O10 O2- 0.0045(5) 0.0013(2) 0.0019(2) -.0004(2) 0.0014(2) -.0001(1)
O11 O2- 0.0047(5) 0.0010(1) 0.0016(2) 0.0008(2) 0.0011(2) 0.0002(1)
O12 O2- 0.0059(5) 0.0012(2) 0.0015(2) 0.0005(2) 0.0010(3) 0.0000(1)
O13 O2- 0.0046(5) 0.0017(2) 0.0019(2) 0.0007(2) -.0004(3) 0.0002(1)
O14 O2- 0.0063(6) 0.0016(2) 0.0024(2) 0.0005(2) -.0010(3) 0.0003(1)
O15 O2- 0.0040(5) 0.0022(2) 0.0033(2) 0.0007(3) -.0018(3) -.0010(2)
O16 O2- 0.0088(7) 0.0027(2) 0.0036(2) 0.0018(3) -.0020(3) -.0013(2)
#End of TTdata_86322-ICSD