
#(C) 2019 by FIZ Karlsruhe - Leibniz Institute for Information Infrastructure.  All rights reserved.
data_86337-ICSD
_database_code_ICSD 86337
_audit_creation_date 1999-11-30
_chemical_name_systematic
'Calcium sodium aluminium silicon oxide (0.89/0.11/1.89/2.11/8)'
_chemical_formula_structural '(Ca0.89 Na0.11) (Al1.89 Si0.11) Si2 O8'
_chemical_formula_sum 'Al1.89 Ca0.89 Na0.11 O8 Si2.11'
_chemical_name_structure_type Feldspar#-(TC,I1-,i28)-Bytownite
_chemical_name_mineral Unnamed_Feldspar
_exptl_crystal_density_diffrn 2.75
_publ_section_title

;
Structural variation associated with compositional variation and
order-disorder behavior in anorthite-rich feldspars
;
loop_
_citation_id
_citation_journal_full
_citation_year
_citation_journal_volume
_citation_page_first
_citation_page_last
_citation_journal_id_ASTM
primary 'American Mineralogist' 1990 75 150 162 AMMIAY
loop_
_publ_author_name
'Angel, R.J.'
'Carpenter, M.A.'
'Finger, L.W.'
_cell_length_a 8.175(2)
_cell_length_b 12.854(3)
_cell_length_c 14.163(3)
_cell_angle_alpha 93.32(2)
_cell_angle_beta 115.90(1)
_cell_angle_gamma 90.97(2)
_cell_volume 1335.06
_cell_formula_units_Z 8
_symmetry_space_group_name_H-M 'I -1'
_symmetry_Int_Tables_number 2
_refine_ls_R_factor_all 0.049
loop_
_symmetry_equiv_pos_site_id
_symmetry_equiv_pos_as_xyz
1 '-x, -y, -z'
2 'x, y, z'
3 '-x+1/2, -y+1/2, -z+1/2'
4 'x+1/2, y+1/2, z+1/2'
loop_
_atom_type_symbol
_atom_type_oxidation_number
Ca2+ 2
Na1+ 1
Ca2+ 2
Na1+ 1
Ca2+ 2
Na1+ 1
Ca2+ 2
Na1+ 1
Si4+ 4
Al3+ 3
Si4+ 4
Al3+ 3
Si4+ 4
Al3+ 3
Si4+ 4
Al3+ 3
Si4+ 4
O2- -2
loop_
_atom_site_label
_atom_site_type_symbol
_atom_site_symmetry_multiplicity
_atom_site_Wyckoff_symbol
_atom_site_fract_x
_atom_site_fract_y
_atom_site_fract_z
_atom_site_B_iso_or_equiv
_atom_site_occupancy
_atom_site_attached_hydrogens
Ca1 Ca2+ 4 i 0.2662(6) 0.9819(6) 0.0867(5) . 0.365(10) 0
Na1 Na1+ 4 i 0.2662(6) 0.9819(6) 0.0867(5) . 0.045(2) 0
Ca2 Ca2+ 4 i 0.268(1) 0.0317(6) 0.5431(6) . 0.318(5) 0
Na2 Na1+ 4 i 0.268(1) 0.0317(6) 0.5431(5) . 0.061(1) 0
Ca3 Ca2+ 4 i 0.7747(4) 0.5340(3) 0.5454(3) . 0.525(10) 0
Na3 Na1+ 4 i 0.7747(4) 0.5340(3) 0.5454(3) . 0.065(2) 0
Ca4 Ca2+ 4 i 0.7677(9) 0.512(2) 0.066(2) . 0.522(5) 0
Na4 Na1+ 4 i 0.7677(9) 0.512(2) 0.066(2) . 0.099(1) 0
Si1 Si4+ 4 i 0.0076(3) 0.1591(2) 0.1047(2) . 1. 0
Al1 Al3+ 4 i 0.0034(3) 0.1638(2) 0.6112(2) . 0.945 0
Si2 Si4+ 4 i 0.0034(3) 0.1638(2) 0.6112(1) . 0.055 0
Al2 Al3+ 4 i 0.0011(3) 0.8154(2) 0.1192(2) . 0.945 0
Si3 Si4+ 4 i 0.0011(3) 0.8154(2) 0.1192(2) . 0.055 0
Si4 Si4+ 4 i 0.0038(3) 0.8171(1) 0.6121(2) . 1. 0
Al3 Al3+ 4 i 0.6874(3) 0.1120(2) 0.1592(2) . 0.945 0
Si5 Si4+ 4 i 0.6874(3) 0.1120(2) 0.1592(2) . 0.055 0
Si6 Si4+ 4 i 0.6785(3) 0.1059(2) 0.6580(2) . 1. 0
Si7 Si4+ 4 i 0.6766(3) 0.8816(2) 0.1807(2) . 1. 0
Al4 Al3+ 4 i 0.6834(3) 0.8751(2) 0.6774(2) . 0.945 0
Si8 Si4+ 4 i 0.6834(2) 0.8751(2) 0.6774(2) . 0.055 0
O1 O2- 4 i 0.0087(8) 0.1266(4) -.0087(4) . 1. 0
O2 O2- 4 i 0.9985(7) 0.1268(4) 0.4896(4) . 1. 0
O3 O2- 4 i 0.5754(7) 0.9897(4) 0.1389(4) . 1. 0
O4 O2- 4 i 0.5756(7) 0.9913(4) 0.6388(4) . 1. 0
O5 O2- 4 i 0.8207(8) 0.1005(4) 0.0918(4) . 1. 0
O6 O2- 4 i 0.8005(8) 0.1017(4) 0.5933(4) . 1. 0
O7 O2- 4 i 0.8093(8) 0.8558(4) 0.1260(5) . 1. 0
O8 O2- 4 i 0.8198(8) 0.8550(4) 0.6162(5) . 1. 0
O9 O2- 4 i 0.0129(7) 0.2808(4) 0.1369(4) . 1. 0
O10 O2- 4 i 0.0174(8) 0.2933(4) 0.6485(4) . 1. 0
O11 O2- 4 i 0.0095(8) 0.6808(4) 0.1080(4) . 1. 0
O12 O2- 4 i 0.0073(8) 0.6911(4) 0.6010(4) . 1. 0
O13 O2- 4 i 0.1925(8) 0.1067(4) 0.1874(4) . 1. 0
O14 O2- 4 i 0.2018(8) 0.1040(4) 0.6917(4) . 1. 0
O15 O2- 4 i 0.1966(8) 0.8673(4) 0.2193(4) . 1. 0
O16 O2- 4 i 0.1856(8) 0.8627(4) 0.7102(4) . 1. 0
loop_
_atom_site_aniso_label
_atom_site_aniso_type_symbol
_atom_site_aniso_beta_11
_atom_site_aniso_beta_22
_atom_site_aniso_beta_33
_atom_site_aniso_beta_12
_atom_site_aniso_beta_13
_atom_site_aniso_beta_23
Ca1 Ca2+ 0.0051(5) 0.0050(3) 0.0028(3) -.0024(4) 0.0025(4) -.0018(3)
Na1 Na1+ 0.0051(5) 0.0050(3) 0.0028(3) -.0024(4) 0.0025(4) -.0018(3)
Ca2 Ca2+ 0.0040(2) 0.0020(2) 0.0008(4) 0.0013(4) 0.0005(4) 0.0009(3)
Na2 Na1+ 0.0040(2) 0.0020(2) 0.0008(4) 0.0013(4) 0.0005(4) 0.0009(3)
Ca3 Ca2+ 0.0012(6) 0.0020(2) 0.0022(2) 0.0007(3) 0.0003(3) -.0009(2)
Na3 Na1+ 0.0012(6) 0.0020(2) 0.0022(2) 0.0007(3) 0.0003(3) -.0009(2)
Ca4 Ca2+ 0.0037(8) 0.0101(7) 0.0065(8) 0.0017(6) -.0001(6) 0.0060(6)
Na4 Na1+ 0.0037(8) 0.0101(7) 0.0065(8) 0.0017(6) -.0001(6) 0.0060(6)
Si1 Si4+ 0.0031(4) 0.0013(1) 0.0009(1) -.0004(2) 0.0007(2) 0.0000(1)
Al1 Al3+ 0.0037(1) 0.0014(1) 0.0011(1) -.0002(2) 0.0010(2) 0.0001(1)
Si2 Si4+ 0.0037(1) 0.0014(1) 0.0011(1) -.0002(2) 0.0010(2) 0.0001(1)
Al2 Al3+ 0.0046(4) 0.0015(1) 0.0009(1) 0.0005(2) 0.0011(2) 0.0000(1)
Si3 Si4+ 0.0046(4) 0.0015(1) 0.0009(1) 0.0005(2) 0.0011(2) 0.0000(1)
Si4 Si4+ 0.0034(4) 0.0012(1) 0.0007(1) 0.0008(2) 0.0004(2) 0.0002(1)
Al3 Al3+ 0.0033(4) 0.0010(1) 0.0015(1) -.0001(2) 0.0007(2) -.0001(1)
Si5 Si4+ 0.0033(4) 0.0010(1) 0.0015(1) -.0001(2) 0.0007(2) -.0001(1)
Si6 Si4+ 0.0031(4) 0.0011(1) 0.0018(1) 0.0004(2) 0.0007(2) 0.0000(1)
Si7 Si4+ 0.0027(4) 0.0011(1) 0.0015(1) 0.0001(1) 0.0008(2) 0.0000(1)
Al4 Al3+ 0.0037(4) 0.0010(1) 0.0013(1) 0.0007(2) 0.0008(2) 0.0005(1)
Si8 Si4+ 0.0037(4) 0.0010(1) 0.0013(1) 0.0007(2) 0.0008(2) 0.0005(1)
O1 O2- 0.009(1) 0.0027(4) 0.0010(3) 0.0003(5) 0.0015(5) 0.0002(3)
O2 O2- 0.009(1) 0.0023(3) 0.0015(3) 0.0012(5) 0.0023(6) 0.0004(3)
O3 O2- 0.004(1) 0.0011(3) 0.0023(4) -.0008(4) 0.0012(5) -.0003(3)
O4 O2- 0.003(1) 0.0015(3) 0.0021(3) 0.0008(4) 0.0010(5) 0.0009(3)
O5 O2- 0.006(1) 0.0021(3) 0.0032(4) -.0011(5) 0.0026(5) -.0007(3)
O6 O2- 0.006(1) 0.0015(3) 0.0040(4) -.0005(4) 0.0030(5) 0.0001(3)
O7 O2- 0.007(1) 0.0023(3) 0.0052(5) -.0002(5) 0.0034(6) -.0009(3)
O8 O2- 0.006(1) 0.0028(3) 0.0048(4) 0.0017(5) 0.0037(6) 0.0005(3)
O9 O2- 0.0053(9) 0.0021(3) 0.0019(3) -.0005(4) 0.0015(5) -.0001(2)
O10 O2- 0.006(1) 0.0016(3) 0.0028(3) -.0002(4) 0.0021(5) -.0003(3)
O11 O2- 0.006(1) 0.0023(3) 0.0019(3) 0.0011(5) 0.0007(5) 0.0004(3)
O12 O2- 0.005(1) 0.0014(3) 0.0021(3) 0.0011(4) 0.0010(5) 0.0000(2)
O13 O2- 0.006(1) 0.0023(3) 0.0023(3) 0.0011(5) 0.0005(5) -.0004(3)
O14 O2- 0.006(1) 0.0018(3) 0.0014(3) 0.0003(5) -.0007(5) 0.0008(2)
O15 O2- 0.006(1) 0.0025(3) 0.0027(4) -.0008(5) -.0013(5) -.0009(3)
O16 O2- 0.007(1) 0.0026(4) 0.0028(4) 0.0007(5) -.0013(5) -.0008(3)
#End of TTdata_86337-ICSD