
#(C) 2019 by FIZ Karlsruhe - Leibniz Institute for Information Infrastructure.  All rights reserved.
data_86669-ICSD
_database_code_ICSD 86669
_audit_creation_date 2000-07-15
_chemical_name_systematic 'Disodium manganese diphosphate(V)'
_chemical_formula_structural 'Na2 Mn (P2 O7)'
_chemical_formula_sum 'Mn1 Na2 O7 P2'
_chemical_name_structure_type Na2ZrSi2O7
_exptl_crystal_density_diffrn 3.14
_cell_measurement_temperature 296.
_publ_section_title

;
Synthesis and characterization of three new layered phosphates, Na2 Mn P2 O7,
Na Cs Mn P2 O7, and Na Cs Mn0.35 Cu0.65 P2 O7
;
loop_
_citation_id
_citation_journal_full
_citation_year
_citation_journal_volume
_citation_page_first
_citation_page_last
_citation_journal_id_ASTM
primary 'Inorganic Chemistry' 1998 37 5869 5874 INOCAJ
loop_
_publ_author_name
'Huang, Q.'
'Hwu, S.-J.'
_cell_length_a 5.316(2)
_cell_length_b 6.580(2)
_cell_length_c 9.409(3)
_cell_angle_alpha 109.65(3)
_cell_angle_beta 95.25(3)
_cell_angle_gamma 106.38(3)
_cell_volume 290.98
_cell_formula_units_Z 2
_symmetry_space_group_name_H-M 'P -1'
_symmetry_Int_Tables_number 2
_refine_ls_R_factor_all 0.023
loop_
_symmetry_equiv_pos_site_id
_symmetry_equiv_pos_as_xyz
1 '-x, -y, -z'
2 'x, y, z'
loop_
_atom_type_symbol
_atom_type_oxidation_number
Mn2+ 2
P5+ 5
Na1+ 1
O2- -2
loop_
_atom_site_label
_atom_site_type_symbol
_atom_site_symmetry_multiplicity
_atom_site_Wyckoff_symbol
_atom_site_fract_x
_atom_site_fract_y
_atom_site_fract_z
_atom_site_B_iso_or_equiv
_atom_site_occupancy
_atom_site_attached_hydrogens
Mn1 Mn2+ 2 i 0.0881(1) 0.6003(1) 0.3628(1) 0.009(1) 1. 0
P1 P5+ 2 i 0.2579(1) 0.1630(1) 0.3887(1) 0.008(1) 1. 0
P2 P5+ 2 i 0.4331(1) 0.3312(1) 0.1346(1) 0.009(1) 1. 0
Na1 Na1+ 2 i 0.6515(2) 0.8680(2) 0.2718(1) 0.022(1) 1. 0
Na2 Na1+ 2 i 0.1248(2) 0.7777(2) 0.0366(1) 0.031(1) 1. 0
O1 O2- 2 i 0.0668(3) 0.3009(3) 0.4203(2) 0.012(1) 1. 0
O2 O2- 2 i 0.4888(3) 0.2398(3) 0.5195(2) 0.017(1) 1. 0
O3 O2- 2 i 0.1023(3) -.0910(3) 0.3308(2) 0.018(1) 1. 0
O4 O2- 2 i 0.3744(4) 0.1833(3) 0.2422(2) 0.025(1) 1. 0
O5 O2- 2 i 0.2680(3) 0.4904(3) 0.1674(2) 0.013(1) 1. 0
O6 O2- 2 i 0.3366(4) 0.1522(3) -.0260(2) 0.018(1) 1. 0
O7 O2- 2 i 0.7301(3) 0.4546(3) 0.1789(2) 0.020(1) 1. 0
#End of TTdata_86669-ICSD