
#(C) 2019 by FIZ Karlsruhe - Leibniz Institute for Information Infrastructure.  All rights reserved.
data_86670-ICSD
_database_code_ICSD 86670
_audit_creation_date 2000-07-15
_chemical_name_systematic 'Sodium cesium manganese diphosphate(V)'
_chemical_formula_structural 'Na Cs Mn (P2 O7)'
_chemical_formula_sum 'Cs1 Mn1 Na1 O7 P2'
_exptl_crystal_density_diffrn 3.26
_cell_measurement_temperature 296.
_publ_section_title

;
Synthesis and characterization of three new layered phosphates, Na2 Mn P2 O7,
Na Cs Mn P2 O7, and Na Cs Mn0.35 Cu0.65 P2 O7
;
loop_
_citation_id
_citation_journal_full
_citation_year
_citation_journal_volume
_citation_page_first
_citation_page_last
_citation_journal_id_ASTM
primary 'Inorganic Chemistry' 1998 37 5869 5874 INOCAJ
loop_
_publ_author_name
'Huang, Q.'
'Hwu, S.-J.'
_cell_length_a 5.332(2)
_cell_length_b 15.009(2)
_cell_length_c 9.808(2)
_cell_angle_alpha 90.
_cell_angle_beta 90.
_cell_angle_gamma 90.
_cell_volume 784.91
_cell_formula_units_Z 4
_symmetry_space_group_name_H-M 'C m c 21'
_symmetry_Int_Tables_number 36
_refine_ls_R_factor_all 0.022
loop_
_symmetry_equiv_pos_site_id
_symmetry_equiv_pos_as_xyz
1 'x, -y, z+1/2'
2 '-x, -y, z+1/2'
3 '-x, y, z'
4 'x, y, z'
5 'x+1/2, -y+1/2, z+1/2'
6 '-x+1/2, -y+1/2, z+1/2'
7 '-x+1/2, y+1/2, z'
8 'x+1/2, y+1/2, z'
loop_
_atom_type_symbol
_atom_type_oxidation_number
Cs1+ 1
Na1+ 1
Mn2+ 2
P5+ 5
O2- -2
loop_
_atom_site_label
_atom_site_type_symbol
_atom_site_symmetry_multiplicity
_atom_site_Wyckoff_symbol
_atom_site_fract_x
_atom_site_fract_y
_atom_site_fract_z
_atom_site_B_iso_or_equiv
_atom_site_occupancy
_atom_site_attached_hydrogens
Cs1 Cs1+ 4 a 0 0.4055(1) 0.7662(1) 0.025(1) 1. 0
Na1 Na1+ 4 a 0.5 0.6402(2) 0.5982(4) 0.027(1) 1. 0
Mn1 Mn2+ 4 a 0 0.3133(1) 0.3638 0.012(1) 1. 0
P1 P5+ 4 a 0 0.2198(1) 0.0527(2) 0.013(1) 1. 0
P2 P5+ 4 a 0.5 0.4409(1) 0.3923(2) 0.011(1) 1. 0
O1 O2- 8 b 0.2699(8) 0.4099(3) 0.3148(5) 0.025(1) 1. 0
O2 O2- 4 a 0 0.1122(4) 0.0371(6) 0.020(2) 1. 0
O3 O2- 4 a 0.5 0.5365(4) 0.4308(6) 0.027(2) 1. 0
O4 O2- 8 b 0.7449(18) 0.2483(6) 0.0115(9) 0.019(1) 0.569(9) 0
O5 O2- 8 b 0.1982(18) 0.7389(6) 0.4597(11) 0.019(1) 0.431(1) 0
O6 O2- 4 a 0 0.2226(13) 0.2154(18) 0.018(2) 0.40(1) 0
O7 O2- 8 b 0.0837(34) 0.2408(9) 0.1908(14) 0.018(2) 0.30(1) 0
#End of TTdata_86670-ICSD