
#(C) 2019 by FIZ Karlsruhe - Leibniz Institute for Information Infrastructure.  All rights reserved.
data_87658-ICSD
_database_code_ICSD 87658
_audit_creation_date 2000-12-16
_chemical_name_systematic 'Sodium tecto-alumotrisilicate'
_chemical_formula_structural 'Na (Al Si3 O8)'
_chemical_formula_sum 'Al1 Na1 O8 Si3'
_chemical_name_structure_type Feldspar#-(TC)-Albite-NaAlSi3O8
_chemical_name_mineral 'Albite (heat-treated)'
_exptl_crystal_density_diffrn 2.63
_publ_section_title 'Order-disorder process in the tetrahedral sites of albite'
loop_
_citation_id
_citation_journal_full
_citation_year
_citation_journal_volume
_citation_page_first
_citation_page_last
_citation_journal_id_ASTM
primary 'American Mineralogist' 1999 84 1144 1151 AMMIAY
loop_
_publ_author_name
'Meneghinello, E.'
'Alberti, A.'
'Cruciani, G.'
_cell_length_a 8.142(1)
_cell_length_b 12.782(2)
_cell_length_c 7.136(1)
_cell_angle_alpha 94.00(1)
_cell_angle_beta 116.51(1)
_cell_angle_gamma 88.13(1)
_cell_volume 662.95
_cell_formula_units_Z 4
_symmetry_space_group_name_H-M 'C -1'
_symmetry_Int_Tables_number 2
_refine_ls_R_factor_all 0.036
loop_
_symmetry_equiv_pos_site_id
_symmetry_equiv_pos_as_xyz
1 '-x, -y, -z'
2 'x, y, z'
3 '-x+1/2, -y+1/2, -z'
4 'x+1/2, y+1/2, z'
loop_
_atom_type_symbol
_atom_type_oxidation_number
Si4+ 4
Al3+ 3
Si4+ 4
Al3+ 3
Si4+ 4
Al3+ 3
Si4+ 4
Al3+ 3
O2- -2
Na1+ 1
loop_
_atom_site_label
_atom_site_type_symbol
_atom_site_symmetry_multiplicity
_atom_site_Wyckoff_symbol
_atom_site_fract_x
_atom_site_fract_y
_atom_site_fract_z
_atom_site_B_iso_or_equiv
_atom_site_occupancy
_atom_site_attached_hydrogens
Si1 Si4+ 4 i 0.0089(1) 0.1687 0.2098(1) 0.66(1) 0.1 0
Al1 Al3+ 4 i 0.0089(1) 0.1687 0.2098(1) 0.66(1) 0.9 0
Si2 Si4+ 4 i 0.0041(1) 0.8193 0.2357(1) 0.61(1) 0.95 0
Al2 Al3+ 4 i 0.0041(1) 0.8193 0.2357(1) 0.61(1) 0.05 0
Si3 Si4+ 4 i 0.6923(1) 0.1103 0.3167(1) 0.64(1) 0.98 0
Al3 Al3+ 4 i 0.6923(1) 0.1103 0.3167(1) 0.64(1) 0.02 0
Si4 Si4+ 4 i 0.6833(1) 0.8812 0.3593(1) 0.63(1) 0.97 0
Al4 Al3+ 4 i 0.6833(1) 0.8812 0.3593(1) 0.63(1) 0.03 0
O1 O2- 4 i 0.0048(1) 0.1323(1) 0.9700(2) 1.16(1) 1. 0
O2 O2- 4 i 0.5941(1) 0.9966(1) 0.2812(2) 0.86(1) 1. 0
O3 O2- 4 i 0.8138(1) 0.1112(1) 0.1923(2) 1.24(1) 1. 0
O4 O2- 4 i 0.8203(1) 0.8504(1) 0.2558(2) 1.44(1) 1. 0
O5 O2- 4 i 0.0149(1) 0.3010(1) 0.2708(2) 1.09(1) 1. 0
O6 O2- 4 i 0.0237(1) 0.6928(1) 0.2291(2) 1.08(1) 1. 0
O7 O2- 4 i 0.2045(1) 0.1103(1) 0.3888(2) 1.16(1) 1. 0
O8 O2- 4 i 0.1839(1) 0.8682(1) 0.4335(2) 1.24(1) 1. 0
Na1 Na1+ 4 i 0.2699(1) 0.9911(1) 0.1453(1) 3.37(1) 1. 0
#End of TTdata_87658-ICSD