
#(C) 2019 by FIZ Karlsruhe - Leibniz Institute for Information Infrastructure.  All rights reserved.
data_87654-ICSD
_database_code_ICSD 87654
_audit_creation_date 2000-12-16
_chemical_name_systematic 'Sodium tecto-alumotrisilicate'
_chemical_formula_structural 'Na (Al Si3 O8)'
_chemical_formula_sum 'Al1 Na1 O8 Si3'
_chemical_name_structure_type Feldspar#-(TC)-Albite-NaAlSi3O8
_chemical_name_mineral Albite
_exptl_crystal_density_diffrn 2.63
_publ_section_title 'Order-disorder process in the tetrahedral sites of albite'
loop_
_citation_id
_citation_journal_full
_citation_year
_citation_journal_volume
_citation_page_first
_citation_page_last
_citation_journal_id_ASTM
primary 'American Mineralogist' 1999 84 1144 1151 AMMIAY
loop_
_publ_author_name
'Meneghinello, E.'
'Alberti, A.'
'Cruciani, G.'
_cell_length_a 8.133(1)
_cell_length_b 12.773(5)
_cell_length_c 7.159(5)
_cell_angle_alpha 94.23(4)
_cell_angle_beta 116.64(4)
_cell_angle_gamma 87.72(2)
_cell_volume 662.92
_cell_formula_units_Z 4
_symmetry_space_group_name_H-M 'C -1'
_symmetry_Int_Tables_number 2
_refine_ls_R_factor_all 0.044
loop_
_symmetry_equiv_pos_site_id
_symmetry_equiv_pos_as_xyz
1 '-x, -y, -z'
2 'x, y, z'
3 '-x+1/2, -y+1/2, -z'
4 'x+1/2, y+1/2, z'
loop_
_atom_type_symbol
_atom_type_oxidation_number
Si4+ 4
Al3+ 3
Si4+ 4
Al3+ 3
Si4+ 4
Al3+ 3
O2- -2
Na1+ 1
loop_
_atom_site_label
_atom_site_type_symbol
_atom_site_symmetry_multiplicity
_atom_site_Wyckoff_symbol
_atom_site_fract_x
_atom_site_fract_y
_atom_site_fract_z
_atom_site_B_iso_or_equiv
_atom_site_occupancy
_atom_site_attached_hydrogens
Si1 Si4+ 4 i 0.0090(1) 0.1684(1) 0.2085(1) 0.61(2) 0.04 0
Al1 Al3+ 4 i 0.0090(1) 0.1684(1) 0.2085(1) 0.61(2) 0.96 0
Si2 Si4+ 4 i 0.0039(1) 0.8205 0.2373(1) 0.55(2) 0.97 0
Al2 Al3+ 4 i 0.0039(1) 0.8205 0.2373(1) 0.55(2) 0.03 0
Si3 Si4+ 4 i 0.6917(1) 0.1103 0.3150(1) 0.59(2) 1. 0
Si4 Si4+ 4 i 0.6815(1) 0.8818 0.3608(1) 0.56(2) 0.99 0
Al3 Al3+ 4 i 0.6815(1) 0.8818 0.3608(1) 0.56(2) 0.01 0
O1 O2- 4 i 0.0045(2) 0.1310(1) 0.9663(2) 0.97(2) 1. 0
O2 O2- 4 i 0.5912(2) 0.9973(1) 0.2805(2) 0.69(2) 1. 0
O3 O2- 4 i 0.8126(2) 0.1095(1) 0.1907(3) 1.05(2) 1. 0
O4 O2- 4 i 0.8201(2) 0.8509(1) 0.2591(3) 1.30(2) 1. 0
O5 O2- 4 i 0.0131(2) 0.3021(1) 0.2698(3) 0.92(2) 1. 0
O6 O2- 4 i 0.0239(2) 0.6937(1) 0.2288(3) 0.94(2) 1. 0
O7 O2- 4 i 0.2074(2) 0.1091(1) 0.3891(2) 0.97(2) 1. 0
O8 O2- 4 i 0.1832(2) 0.8678(1) 0.4365(3) 1.16(2) 1. 0
Na1 Na1+ 4 i 0.2681(1) 0.9888(1) 0.1462(2) 2.63(2) 1. 0
#End of TTdata_87654-ICSD