
#(C) 2019 by FIZ Karlsruhe - Leibniz Institute for Information Infrastructure.  All rights reserved.
data_87660-ICSD
_database_code_ICSD 87660
_audit_creation_date 2000-12-16
_chemical_name_systematic 'Sodium tecto-alumotrisilicate'
_chemical_formula_structural 'Na (Al Si3 O8)'
_chemical_formula_sum 'Al1 Na1 O8 Si3'
_chemical_name_structure_type Feldspar#-(TC)-Albite-NaAlSi3O8
_chemical_name_mineral 'Albite (heat-treated)'
_exptl_crystal_density_diffrn 2.62
_publ_section_title 'Order-disorder process in the tetrahedral sites of albite'
loop_
_citation_id
_citation_journal_full
_citation_year
_citation_journal_volume
_citation_page_first
_citation_page_last
_citation_journal_id_ASTM
primary 'American Mineralogist' 1999 84 1144 1151 AMMIAY
loop_
_publ_author_name
'Meneghinello, E.'
'Alberti, A.'
'Cruciani, G.'
_cell_length_a 8.160(2)
_cell_length_b 12.802(3)
_cell_length_c 7.130(2)
_cell_angle_alpha 93.72(2)
_cell_angle_beta 116.42(2)
_cell_angle_gamma 88.61(2)
_cell_volume 665.62
_cell_formula_units_Z 4
_symmetry_space_group_name_H-M 'C -1'
_symmetry_Int_Tables_number 2
_refine_ls_R_factor_all 0.048
loop_
_symmetry_equiv_pos_site_id
_symmetry_equiv_pos_as_xyz
1 '-x, -y, -z'
2 'x, y, z'
3 '-x+1/2, -y+1/2, -z'
4 'x+1/2, y+1/2, z'
loop_
_atom_type_symbol
_atom_type_oxidation_number
Si4+ 4
Al3+ 3
Si4+ 4
Al3+ 3
Si4+ 4
Al3+ 3
Si4+ 4
Al3+ 3
O2- -2
Na1+ 1
loop_
_atom_site_label
_atom_site_type_symbol
_atom_site_symmetry_multiplicity
_atom_site_Wyckoff_symbol
_atom_site_fract_x
_atom_site_fract_y
_atom_site_fract_z
_atom_site_B_iso_or_equiv
_atom_site_occupancy
_atom_site_attached_hydrogens
Si1 Si4+ 4 i 0.0088(1) 0.1691(1) 0.2112(1) 0.86(2) 0.25 0
Al1 Al3+ 4 i 0.0088(1) 0.1691(1) 0.2112(1) 0.86(2) 0.75 0
Si2 Si4+ 4 i 0.0043(1) 0.8182(1) 0.2340(1) 0.81(2) 0.9 0
Al2 Al3+ 4 i 0.0043(1) 0.8182(1) 0.2340(1) 0.81(2) 0.1 0
Si3 Si4+ 4 i 0.6927(1) 0.1104(1) 0.3191(1) 0.83(2) 0.92 0
Al3 Al3+ 4 i 0.6927(1) 0.1104(1) 0.3191(1) 0.83(2) 0.08 0
Si4 Si4+ 4 i 0.6850(1) 0.8807(1) 0.3573(1) 0.82(2) 0.93 0
Al4 Al3+ 4 i 0.6850(1) 0.8807(1) 0.3573(1) 0.82(2) 0.07 0
O1 O2- 4 i 0.0051(3) 0.1339(1) 0.9752(3) 1.54(2) 1. 0
O2 O2- 4 i 0.5950(2) 0.9956(1) 0.2807(3) 1.14(2) 1. 0
O3 O2- 4 i 0.8158(2) 0.1123(2) 0.1952(3) 1.60(2) 1. 0
O4 O2- 4 i 0.8204(2) 0.8510(2) 0.2519(3) 1.69(2) 1. 0
O5 O2- 4 i 0.0162(2) 0.2993(1) 0.2710(3) 1.37(2) 1. 0
O6 O2- 4 i 0.0236(2) 0.6920(1) 0.2292(3) 1.30(2) 1. 0
O7 O2- 4 i 0.2021(2) 0.1107(1) 0.3894(3) 1.40(2) 1. 0
O8 O2- 4 i 0.1840(2) 0.8682(1) 0.4308(3) 1.47(2) 1. 0
Na1 Na1+ 4 i 0.2711(2) 0.9946(1) 0.1432(2) 4.09(2) 1. 0
#End of TTdata_87660-ICSD