
#(C) 2019 by FIZ Karlsruhe - Leibniz Institute for Information Infrastructure.  All rights reserved.
data_87684-ICSD
_database_code_ICSD 87684
_audit_creation_date 2000-12-16
_chemical_name_systematic 'Triaquasodium phyllo-hydroxotetraoxodisilicate'
_chemical_formula_structural '(Na (H2 O)3) (Si2 O4 (O H))'
_chemical_formula_sum 'H7 Na1 O8 Si2'
_chemical_name_mineral Kanemite
_exptl_crystal_density_diffrn 1.93
_publ_section_title

;
Crystal structure of kanemite, Na H Si2 O5 . 3(H2 O), from the Aris phonolite,
Namibia
;
loop_
_citation_id
_citation_journal_full
_citation_year
_citation_journal_volume
_citation_page_first
_citation_page_last
_citation_journal_id_ASTM
primary 'American Mineralogist' 1999 84 1170 1175 AMMIAY
loop_
_publ_author_name
'Garvie, L.A.J.'
'Devouard, B.'
'Groy, T.L.'
'Camara, F.'
'Buseck, P.R.'
_cell_length_a 4.946(3)
_cell_length_b 20.502(15)
_cell_length_c 7.275(3)
_cell_angle_alpha 90.
_cell_angle_beta 90.
_cell_angle_gamma 90.
_cell_volume 737.71
_cell_formula_units_Z 4
_symmetry_space_group_name_H-M 'P b c n'
_symmetry_Int_Tables_number 60
_refine_ls_R_factor_all 0.058
loop_
_symmetry_equiv_pos_site_id
_symmetry_equiv_pos_as_xyz
1 'x, -y, z+1/2'
2 '-x+1/2, y+1/2, z'
3 'x+1/2, y+1/2, -z+1/2'
4 '-x, -y, -z'
5 '-x, y, -z+1/2'
6 'x+1/2, -y+1/2, -z'
7 '-x+1/2, -y+1/2, z+1/2'
8 'x, y, z'
loop_
_atom_type_symbol
_atom_type_oxidation_number
Si4+ 4
Na1+ 1
O2- -2
H1+ 1
loop_
_atom_site_label
_atom_site_type_symbol
_atom_site_symmetry_multiplicity
_atom_site_Wyckoff_symbol
_atom_site_fract_x
_atom_site_fract_y
_atom_site_fract_z
_atom_site_B_iso_or_equiv
_atom_site_occupancy
_atom_site_attached_hydrogens
Si1 Si4+ 8 d 0.0497(2) 0.2925(1) 0.0391(1) . 1. 0
Na1 Na1+ 4 c 0.5 0.5115(1) 0.75 . 1. 0
O1 O2- 4 c 0 0.3128(2) 0.25 . 1. 0
O2 O2- 8 d 0.0042(4) 0.3571(1) -.0790(2) . 1. 0
O3 O2- 8 d 0.8562(4) 0.2326(1) -.0181(3) . 1. 0
O4 O2- 8 d 0.4876(6) 0.5754(1) 0.0267(4) . 1. 0
O5 O2- 4 c 0 0.5411(3) 0.75 . 1. 0
H1 H1+ 8 d 0.0193(5) 0.3795(6) 0.8011(3) 0.036(12) 0.5 0
H2 H1+ 8 d 0.645(1) 0.4020(2) -.0510(6) 0.065(16) 1. 0
H3 H1+ 8 d 0.3640(11) 0.4060(2) -.0430(7) 0.085(19) 1. 0
H4 H1+ 8 d 0.0067(8) 0.5071(2) 0.6653(5) 0.170(7) 1. 0
loop_
_atom_site_aniso_label
_atom_site_aniso_type_symbol
_atom_site_aniso_U_11
_atom_site_aniso_U_22
_atom_site_aniso_U_33
_atom_site_aniso_U_12
_atom_site_aniso_U_13
_atom_site_aniso_U_23
Si1 Si4+ 0.010(1) 0.018(1) 0.011(1) 0.002(1) 0.001(1) 0.000(1)
Na1 Na1+ 0.034(1) 0.029(1) 0.025(1) 0 0.000(1) 0
O1 O2- 0.033(2) 0.042(2) 0.014(1) 0 0.004(1) 0
O2 O2- 0.031(1) 0.023(1) 0.014(1) 0.003(1) 0.000(1) 0.003(1)
O3 O2- 0.011(11) 0.025(1) 0.043(1) -.001(1) -.001(1) -.008(1)
O4 O2- 0.037(2) 0.023(1) 0.039(1) -.001(1) 0.001(1) -.002(1)
O5 O2- 0.029(3) 0.060(4) 0.111(6) 0 0.003(3) 0
#End of TTdata_87684-ICSD