
#(C) 2019 by FIZ Karlsruhe - Leibniz Institute for Information Infrastructure.  All rights reserved.
data_87709-ICSD
_database_code_ICSD 87709
_audit_creation_date 2000-12-16
_audit_update_record 2015-08-01
_chemical_name_systematic
'Sodium magnesium silicon iron(III) catena-disilicate *'
_chemical_formula_structural 'Na2 (Mg4.31 Si0.39 Fe1.3) Si6 O20'
_chemical_formula_sum 'Fe1.3 Mg4.31 Na2 O20 Si6.39'
_chemical_name_structure_type Aenigmatite-Na2TiFe5Si6O20
_chemical_name_mineral Aenigmatite
_exptl_crystal_density_diffrn 3.34
_publ_section_title

;
Composition, stability, and structure of a new mwmber of the aenigmatite
group, Na2 Mg4+x Fe(3+)2-2x Si6+x O20, synthesized at 13-14 GPa
;
loop_
_citation_id
_citation_journal_full
_citation_year
_citation_journal_volume
_citation_page_first
_citation_page_last
_citation_journal_id_ASTM
primary 'American Mineralogist' 1999 84 257 266 AMMIAY
loop_
_publ_author_name
'Gasparik, T.'
'Parise, J.B.'
'Reeder, R.J.'
'Young, V.G.jr.'
'Wilford, W.S.'
_cell_length_a 10.328(1)
_cell_length_b 10.724(1)
_cell_length_c 8.805(1)
_cell_angle_alpha 105.15(1)
_cell_angle_beta 96.85(1)
_cell_angle_gamma 125.47(1)
_cell_volume 719.67
_cell_formula_units_Z 2
_symmetry_space_group_name_H-M 'P -1'
_symmetry_Int_Tables_number 2
_refine_ls_R_factor_all 0.044
loop_
_symmetry_equiv_pos_site_id
_symmetry_equiv_pos_as_xyz
1 '-x, -y, -z'
2 'x, y, z'
loop_
_atom_type_symbol
_atom_type_oxidation_number
Mg2+ 2
Si4+ 4
Fe3+ 3
Mg2+ 2
Si4+ 4
Fe3+ 3
Mg2+ 2
Si4+ 4
Fe3+ 3
Mg2+ 2
Si4+ 4
Fe3+ 3
Mg2+ 2
Si4+ 4
Fe3+ 3
Mg2+ 2
Si4+ 4
Fe3+ 3
Mg2+ 2
Si4+ 4
Fe3+ 3
Si4+ 4
Na1+ 1
O2- -2
loop_
_atom_site_label
_atom_site_type_symbol
_atom_site_symmetry_multiplicity
_atom_site_Wyckoff_symbol
_atom_site_fract_x
_atom_site_fract_y
_atom_site_fract_z
_atom_site_B_iso_or_equiv
_atom_site_occupancy
_atom_site_attached_hydrogens
Mg1 Mg2+ 1 b 0 0 0.5 . 0.687(4) 0
Si1 Si4+ 1 b 0 0 0.5 . 0.062(1) 0
Fe1 Fe3+ 1 b 0 0 0.5 . 0.251(4) 0
Mg2 Mg2+ 1 c 0 0.5 0 . 0.644(4) 0
Si2 Si4+ 1 c 0 0.5 0 . 0.058(1) 0
Fe2 Fe3+ 1 c 0 0.5 0 . 0.298(4) 0
Mg3 Mg2+ 2 i 0.3139(3) 0.8489(3) 0.1780(3) . 0.697(4) 0
Si3 Si4+ 2 i 0.3139(3) 0.8489(3) 0.1780(3) . 0.063(1) 0
Fe3 Fe3+ 2 i 0.3139(3) 0.8489(3) 0.1780(3) . 0.240(4) 0
Mg4 Mg2+ 2 i 0.7687(2) 0.8191(3) 0.1508(3) . 0.722(4) 0
Si4 Si4+ 2 i 0.7687(2) 0.8191(3) 0.1508(3) . 0.065(1) 0
Fe4 Fe3+ 2 i 0.7687(2) 0.8191(3) 0.1508(3) . 0.213(4) 0
Mg5 Mg2+ 2 i 0.0949(4) 0.9394(3) 0.0559(3) . 0.762(4) 0
Si5 Si4+ 2 i 0.0949(4) 0.9394(3) 0.0559(3) . 0.069(1) 0
Fe5 Fe3+ 2 i 0.0949(4) 0.9394(3) 0.0559(3) . 0.169(4) 0
Mg6 Mg2+ 2 i 0.5959(3) 0.9422(3) 0.0646(3) . 0.725(4) 0
Si6 Si4+ 2 i 0.5959(3) 0.9422(3) 0.0646(3) . 0.066(1) 0
Fe6 Fe3+ 2 i 0.5959(3) 0.9422(3) 0.0646(3) . 0.209(4) 0
Mg7 Mg2+ 2 i 0.9920(2) 0.7350(2) 0.2649(2) . 0.739(4) 0
Si7 Si4+ 2 i 0.9920(2) 0.7350(2) 0.2649(2) . 0.067(1) 0
Fe7 Fe3+ 2 i 0.9920(2) 0.7350(2) 0.2649(2) . 0.194(4) 0
Si8 Si4+ 2 i 0.4767(3) 0.2328(3) 0.3320(3) . 1. 0
Si9 Si4+ 2 i 0.9836(3) 0.2339(3) 0.3451(3) . 1. 0
Si10 Si4+ 2 i 0.7910(3) 0.3428(3) 0.2402(3) . 1. 0
Si11 Si4+ 2 i 0.2793(3) 0.3399(3) 0.2254(3) . 1. 0
Si12 Si4+ 2 i 0.6497(2) 0.9493(2) 0.4436(2) . 1. 0
Si13 Si4+ 2 i 0.3549(2) 0.5602(2) 0.0458(2) . 1. 0
Na1 Na1+ 2 i 0.2093(4) 0.6344(4) 0.3911(4) . 1. 0
Na2 Na1+ 2 i 0.6621(4) 0.6118(4) 0.3698(4) . 1. 0
O1 O2- 2 i 0.3555(7) 0.0650(7) 0.1628(7) . 1. 0
O2 O2- 2 i 0.8600(7) 0.0659(7) 0.1743(7) . 1. 0
O3 O2- 2 i 0.5595(7) 0.9605(7) 0.2915(7) . 1. 0
O4 O2- 2 i 0.0255(8) 0.9357(9) 0.2693(8) . 1. 0
O5 O2- 2 i 0.2314(7) 0.8718(7) 0.3902(7) . 1. 0
O6 O2- 2 i 0.7486(7) 0.8827(7) 0.3901(7) . 1. 0
O7 O2- 2 i 0.4926(6) 0.1955(7) 0.4984(6) . 1. 0
O8 O2- 2 i 0.9556(7) 0.7774(7) 0.4830(7) . 1. 0
O9 O2- 2 i 0.8970(7) 0.3218(7) 0.3701(7) . 1. 0
O10 O2- 2 i 0.4029(6) 0.3363(7) 0.3533(6) . 1. 0
O11 O2- 2 i 0.6588(7) 0.1729(7) 0.0694(7) . 1. 0
O12 O2- 2 i 0.1538(7) 0.1675(7) 0.0617(7) . 1. 0
O13 O2- 2 i 0.5289(7) 0.7104(7) 0.0353(7) . 1. 0
O14 O2- 2 i 0.0605(7) 0.7288(7) 0.0654(8) . 1. 0
O15 O2- 2 i 0.2426(7) 0.6133(7) 0.1125(7) . 1. 0
O16 O2- 2 i 0.7512(8) 0.6099(8) 0.1283(8) . 1. 0
O17 O2- 2 i 0.4034(6) 0.5015(6) 0.1889(6) . 1. 0
O18 O2- 2 i 0.9347(7) 0.5112(7) 0.2243(7) . 1. 0
O19 O2- 2 i 0.1664(6) 0.3696(7) 0.3195(7) . 1. 0
O20 O2- 2 i 0.6738(6) 0.3666(7) 0.3372(7) . 1. 0
loop_
_atom_site_aniso_label
_atom_site_aniso_type_symbol
_atom_site_aniso_U_11
_atom_site_aniso_U_22
_atom_site_aniso_U_33
_atom_site_aniso_U_12
_atom_site_aniso_U_13
_atom_site_aniso_U_23
Mg1 Mg2+ 0.012(1) 0.009(1) 0.015(1) 0.008(1) -.003(1) -.001(1)
Si1 Si4+ 0.012(1) 0.009(1) 0.015(1) 0.008(1) -.003(1) -.001(1)
Fe1 Fe3+ 0.012(1) 0.009(1) 0.015(1) 0.008(1) -.003(1) -.001(1)
Mg2 Mg2+ 0.010(1) 0.013(1) 0.014(1) 0.005(1) 0.004(1) 0.000(1)
Si2 Si4+ 0.010(1) 0.013(1) 0.014(1) 0.005(1) 0.004(1) 0.000(1)
Fe2 Fe3+ 0.010(1) 0.013(1) 0.014(1) 0.005(1) 0.004(1) 0.000(1)
Mg3 Mg2+ 0.012(1) 0.011(1) 0.010(1) 0.008(1) 0.005(1) 0.005(1)
Si3 Si4+ 0.012(1) 0.011(1) 0.010(1) 0.008(1) 0.005(1) 0.005(1)
Fe3 Fe3+ 0.012(1) 0.011(1) 0.010(1) 0.008(1) 0.005(1) 0.005(1)
Mg4 Mg2+ 0.008(1) 0.008(1) 0.007(1) 0.005(1) 0.002(1) 0.002(1)
Si4 Si4+ 0.008(1) 0.008(1) 0.007(1) 0.005(1) 0.002(1) 0.002(1)
Fe4 Fe3+ 0.008(1) 0.008(1) 0.007(1) 0.005(1) 0.002(1) 0.002(1)
Mg5 Mg2+ 0.009(1) 0.015(1) 0.013(1) 0.007(1) 0.006(1) 0.007(1)
Si5 Si4+ 0.009(1) 0.015(1) 0.013(1) 0.007(1) 0.006(1) 0.007(1)
Fe5 Fe3+ 0.009(1) 0.015(1) 0.013(1) 0.007(1) 0.006(1) 0.007(1)
Mg6 Mg2+ 0.009(1) 0.011(1) 0.007(1) 0.006(1) 0.005(1) 0.005(1)
Si6 Si4+ 0.009(1) 0.011(1) 0.007(1) 0.006(1) 0.005(1) 0.005(1)
Fe6 Fe3+ 0.009(1) 0.011(1) 0.007(1) 0.006(1) 0.005(1) 0.005(1)
Mg7 Mg2+ 0.007(1) 0.007(1) 0.008(1) 0.005(1) 0.000(1) 0.000(1)
Si7 Si4+ 0.007(1) 0.007(1) 0.008(1) 0.005(1) 0.000(1) 0.000(1)
Fe7 Fe3+ 0.007(1) 0.007(1) 0.008(1) 0.005(1) 0.000(1) 0.000(1)
Si8 Si4+ 0.008(1) 0.010(1) 0.004(1) 0.006(1) 0.003(1) 0.004(1)
Si9 Si4+ 0.009(1) 0.011(1) 0.008(1) 0.007(1) 0.004(1) 0.006(1)
Si10 Si4+ 0.007(1) 0.011(1) 0.003(1) 0.006(1) 0.003(1) 0.003(1)
Si11 Si4+ 0.007(1) 0.008(1) 0.004(1) 0.005(1) 0.003(1) 0.003(1)
Si12 Si4+ 0.008(1) 0.006(1) 0.008(1) 0.004(1) 0.003(1) 0.004(1)
Si13 Si4+ 0.008(1) 0.005(1) 0.007(1) 0.004(1) 0.002(1) 0.002(1)
Na1 Na1+ 0.013(2) 0.011(1) 0.014(1) 0.006(1) 0.001(1) 0.005(1)
Na2 Na1+ 0.011(2) 0.014(1) 0.020(2) 0.008(1) 0.006(1) 0.010(1)
O1 O2- 0.007(3) 0.009(3) 0.010(3) 0.005(2) 0.006(2) 0.007(2)
O2 O2- 0.007(3) 0.011(3) 0.016(3) 0.007(2) 0.004(2) 0.007(2)
O3 O2- 0.006(2) 0.012(2) 0.008(2) 0.005(2) 0.000(2) 0.004(2)
O4 O2- 0.024(3) 0.030(3) 0.010(3) 0.020(3) 0.000(2) 0.003(2)
O5 O2- 0.010(2) 0.004(2) 0.006(3) 0.006(2) 0.002(2) 0.001(2)
O6 O2- 0.010(2) 0.005(2) 0.011(3) 0.005(2) 0.003(2) 0.004(2)
O7 O2- 0.007(3) 0.013(2) 0.009(2) 0.006(2) 0.005(2) 0.005(2)
O8 O2- 0.011(3) 0.014(2) 0.017(3) 0.005(2) -.002(2) 0.009(2)
O9 O2- 0.013(3) 0.014(3) 0.012(3) 0.010(2) 0.004(2) 0.001(2)
O10 O2- 0.009(2) 0.009(2) 0.007(2) 0.006(2) 0.005(2) 0.003(2)
O11 O2- 0.011(3) 0.005(3) 0.005(3) 0.004(2) 0.001(2) -.002(2)
O12 O2- 0.011(3) 0.005(3) 0.006(3) 0.003(2) 0.000(2) -.002(2)
O13 O2- 0.013(2) 0.006(2) 0.007(2) 0.006(2) 0.004(2) 0.001(2)
O14 O2- 0.006(3) 0.011(3) 0.025(3) 0.007(2) 0.001(2) 0.004(2)
O15 O2- 0.008(2) 0.010(3) 0.007(2) 0.007(2) -.001(2) 0.000(2)
O16 O2- 0.013(3) 0.007(3) 0.014(3) 0.003(2) 0.004(2) -.002(2)
O17 O2- 0.008(2) 0.005(2) 0.009(2) 0.003(2) 0.004(2) 0.002(2)
O18 O2- 0.007(2) 0.018(3) 0.011(2) 0.007(2) 0.003(2) 0.010(2)
O19 O2- 0.007(3) 0.004(2) 0.013(3) 0.002(2) 0.005(2) 0.003(2)
O20 O2- 0.005(2) 0.007(2) 0.005(2) 0.002(2) 0.003(2) 0.000(2)
#End of TTdata_87709-ICSD