
#(C) 2019 by FIZ Karlsruhe - Leibniz Institute for Information Infrastructure.  All rights reserved.
data_87782-ICSD
_database_code_ICSD 87782
_audit_creation_date 2000-12-16
_chemical_name_systematic
'Sodium cobalt aluminium phosphate(V) (0.09/0.06/0.96/1)'
_chemical_formula_structural 'Na0.09 (Co0.06 Al0.96) (P O4)'
_chemical_formula_sum 'Al0.96 Co0.06 Na0.09 O4 P1'
_chemical_name_mineral Unnamed
_exptl_crystal_density_diffrn 1.56
_cell_measurement_temperature 473.
_publ_section_title

;
An in situ microcrystal X-ray diffraction study of the synthetic
aluminophosphate zeotypes DAF-1 and CoAPSO-44
;
loop_
_citation_id
_citation_journal_full
_citation_year
_citation_journal_volume
_citation_page_first
_citation_page_last
_citation_journal_id_ASTM
primary 'Chemistry of Materials' 1999 11 158 163 CMATEX
loop_
_publ_author_name
'Muncaster, G.'
'Sankar, G.'
'Catlow, C.R.A.'
'Thomas, J.M.'
'Bell, R.G.'
'Wright, P.A.'
'Coles, S.'
'Teat, S.J.'
'Clegg, W.'
'Reeve, W.'
_cell_length_a 13.6888(7)
_cell_length_b 13.6888(7)
_cell_length_c 14.8893(11)
_cell_angle_alpha 90.
_cell_angle_beta 90.
_cell_angle_gamma 120.
_cell_volume 2416.22
_cell_formula_units_Z 18
_symmetry_space_group_name_H-M 'R -3 H'
_symmetry_Int_Tables_number 148
_refine_ls_R_factor_all 0.054
loop_
_symmetry_equiv_pos_site_id
_symmetry_equiv_pos_as_xyz
1 'x-y, x, -z'
2 'y, -x+y, -z'
3 '-x, -y, -z'
4 '-x+y, -x, z'
5 '-y, x-y, z'
6 'x, y, z'
7 'x-y+2/3, x+1/3, -z+1/3'
8 'y+2/3, -x+y+1/3, -z+1/3'
9 '-x+2/3, -y+1/3, -z+1/3'
10 '-x+y+2/3, -x+1/3, z+1/3'
11 '-y+2/3, x-y+1/3, z+1/3'
12 'x+2/3, y+1/3, z+1/3'
13 'x-y+1/3, x+2/3, -z+2/3'
14 'y+1/3, -x+y+2/3, -z+2/3'
15 '-x+1/3, -y+2/3, -z+2/3'
16 '-x+y+1/3, -x+2/3, z+2/3'
17 '-y+1/3, x-y+2/3, z+2/3'
18 'x+1/3, y+2/3, z+2/3'
loop_
_atom_type_symbol
_atom_type_oxidation_number
P5+ 5
Al3+ 3
Co2+ 2
O2- -2
Na0+ 0
loop_
_atom_site_label
_atom_site_type_symbol
_atom_site_symmetry_multiplicity
_atom_site_Wyckoff_symbol
_atom_site_fract_x
_atom_site_fract_y
_atom_site_fract_z
_atom_site_B_iso_or_equiv
_atom_site_occupancy
_atom_site_attached_hydrogens
P1 P5+ 18 f 0.7708(1) -.0039(1) 0.1073(1) 0.021(1) 1. 0
Al1 Al3+ 18 f 0.7734(1) 0.7695(1) 0.1016(1) 0.022(1) 0.96 0
Co1 Co2+ 18 f 0.7734(1) 0.7695(1) 0.1016(1) 0.022(1) 0.06 0
O1 O2- 18 f 0.7605(2) 0.8831(2) 0.1323(2) 0.041(1) 1. 0
O2 O2- 18 f 0.6921(2) 0.0154(2) 0.1681(2) 0.040(1) 1. 0
O3 O2- 18 f 0.8931(2) 0.0890(2) 0.1216(2) 0.046(1) 1. 0
O4 O2- 18 f 0.7357(3) -.0044(2) 0.0097(2) 0.045(1) 1. 0
Na1 Na0+ 6 c 0 0 0.1705 0.065(5) 0.27 0
#End of TTdata_87782-ICSD