
#(C) 2019 by FIZ Karlsruhe - Leibniz Institute for Information Infrastructure.  All rights reserved.
data_87850-ICSD
_database_code_ICSD 87850
_audit_creation_date 2001-07-16
_audit_update_record 2015-08-01
_chemical_name_systematic 'Sodium tecto-alumosilicate *'
_chemical_formula_structural 'Na93.44 (Al93 Si99 O384)'
_chemical_formula_sum 'Al93 Na93.44 O384 Si99'
_chemical_name_structure_type Faujasite-Fd3--frame
_chemical_name_mineral Faujasite-Na
_exptl_crystal_density_diffrn 1.43
_cell_measurement_temperature 298.
_publ_section_title
'The crystal structure of a low-silica dehydrated NaX zeolite'
loop_
_citation_id
_citation_journal_full
_citation_year
_citation_journal_volume
_citation_page_first
_citation_page_last
_citation_journal_id_ASTM
primary 'European Journal of Mineralogy' 1999 11 333 343 EJMIER
loop_
_publ_author_name
'Porcher, F.'
'Souhassou, M.'
'Dusausoy, Y.'
'Lecomte, C.'
_cell_length_a 25.1040(30)
_cell_length_b 25.1040(30)
_cell_length_c 25.1040(30)
_cell_angle_alpha 90.
_cell_angle_beta 90.
_cell_angle_gamma 90.
_cell_volume 15820.81
_cell_formula_units_Z 1
_symmetry_space_group_name_H-M 'F d -3 Z'
_symmetry_Int_Tables_number 203
_refine_ls_R_factor_all 0.047
loop_
_symmetry_equiv_pos_site_id
_symmetry_equiv_pos_as_xyz
1 '-z, x+3/4, y+3/4'
2 'z+3/4, x+3/4, -y'
3 'z+3/4, -x, y+3/4'
4 '-z, -x, -y'
5 'y+3/4, -z, x+3/4'
6 '-y, z+3/4, x+3/4'
7 'y+3/4, z+3/4, -x'
8 '-y, -z, -x'
9 'x+3/4, y+3/4, -z'
10 'x+3/4, -y, z+3/4'
11 '-x, y+3/4, z+3/4'
12 '-x, -y, -z'
13 'z, -x+1/4, -y+1/4'
14 '-z+1/4, -x+1/4, y'
15 '-z+1/4, x, -y+1/4'
16 'z, x, y'
17 '-y+1/4, z, -x+1/4'
18 'y, -z+1/4, -x+1/4'
19 '-y+1/4, -z+1/4, x'
20 'y, z, x'
21 '-x+1/4, -y+1/4, z'
22 '-x+1/4, y, -z+1/4'
23 'x, -y+1/4, -z+1/4'
24 'x, y, z'
25 '-z, x+1/4, y+1/4'
26 'z+3/4, x+1/4, -y+1/2'
27 'z+3/4, -x+1/2, y+1/4'
28 '-z, -x+1/2, -y+1/2'
29 'y+3/4, -z+1/2, x+1/4'
30 '-y, z+1/4, x+1/4'
31 'y+3/4, z+1/4, -x+1/2'
32 '-y, -z+1/2, -x+1/2'
33 'x+3/4, y+1/4, -z+1/2'
34 'x+3/4, -y+1/2, z+1/4'
35 '-x, y+1/4, z+1/4'
36 '-x, -y+1/2, -z+1/2'
37 'z, -x+3/4, -y+3/4'
38 '-z+1/4, -x+3/4, y+1/2'
39 '-z+1/4, x+1/2, -y+3/4'
40 'z, x+1/2, y+1/2'
41 '-y+1/4, z+1/2, -x+3/4'
42 'y, -z+3/4, -x+3/4'
43 '-y+1/4, -z+3/4, x+1/2'
44 'y, z+1/2, x+1/2'
45 '-x+1/4, -y+3/4, z+1/2'
46 '-x+1/4, y+1/2, -z+3/4'
47 'x, -y+3/4, -z+3/4'
48 'x, y+1/2, z+1/2'
49 '-z+1/2, x+3/4, y+1/4'
50 'z+1/4, x+3/4, -y+1/2'
51 'z+1/4, -x, y+1/4'
52 '-z+1/2, -x, -y+1/2'
53 'y+1/4, -z, x+1/4'
54 '-y+1/2, z+3/4, x+1/4'
55 'y+1/4, z+3/4, -x+1/2'
56 '-y+1/2, -z, -x+1/2'
57 'x+1/4, y+3/4, -z+1/2'
58 'x+1/4, -y, z+1/4'
59 '-x+1/2, y+3/4, z+1/4'
60 '-x+1/2, -y, -z+1/2'
61 'z+1/2, -x+1/4, -y+3/4'
62 '-z+3/4, -x+1/4, y+1/2'
63 '-z+3/4, x, -y+3/4'
64 'z+1/2, x, y+1/2'
65 '-y+3/4, z, -x+3/4'
66 'y+1/2, -z+1/4, -x+3/4'
67 '-y+3/4, -z+1/4, x+1/2'
68 'y+1/2, z, x+1/2'
69 '-x+3/4, -y+1/4, z+1/2'
70 '-x+3/4, y, -z+3/4'
71 'x+1/2, -y+1/4, -z+3/4'
72 'x+1/2, y, z+1/2'
73 '-z+1/2, x+1/4, y+3/4'
74 'z+1/4, x+1/4, -y'
75 'z+1/4, -x+1/2, y+3/4'
76 '-z+1/2, -x+1/2, -y'
77 'y+1/4, -z+1/2, x+3/4'
78 '-y+1/2, z+1/4, x+3/4'
79 'y+1/4, z+1/4, -x'
80 '-y+1/2, -z+1/2, -x'
81 'x+1/4, y+1/4, -z'
82 'x+1/4, -y+1/2, z+3/4'
83 '-x+1/2, y+1/4, z+3/4'
84 '-x+1/2, -y+1/2, -z'
85 'z+1/2, -x+3/4, -y+1/4'
86 '-z+3/4, -x+3/4, y'
87 '-z+3/4, x+1/2, -y+1/4'
88 'z+1/2, x+1/2, y'
89 '-y+3/4, z+1/2, -x+1/4'
90 'y+1/2, -z+3/4, -x+1/4'
91 '-y+3/4, -z+3/4, x'
92 'y+1/2, z+1/2, x'
93 '-x+3/4, -y+3/4, z'
94 '-x+3/4, y+1/2, -z+1/4'
95 'x+1/2, -y+3/4, -z+1/4'
96 'x+1/2, y+1/2, z'
loop_
_atom_type_symbol
_atom_type_oxidation_number
Si4+ 4
Al3+ 3
Si4+ 4
O2- -2
Na1+ 1
loop_
_atom_site_label
_atom_site_type_symbol
_atom_site_symmetry_multiplicity
_atom_site_Wyckoff_symbol
_atom_site_fract_x
_atom_site_fract_y
_atom_site_fract_z
_atom_site_B_iso_or_equiv
_atom_site_occupancy
_atom_site_attached_hydrogens
Si1 Si4+ 96 g 0.94573(6) 0.12553(6) 0.03502(5) . 1. 0
Al1 Al3+ 96 g 0.94481(6) 0.03586(6) 0.12401(7) . 0.9688 0
Si2 Si4+ 96 g 0.94481(6) 0.03586(6) 0.12401(7) . 0.0312 0
O1 O2- 96 g 0.8902(2) -.0002(2) 0.1058(2) . 1. 0
O2 O2- 96 g -.0011(2) -.0029(2) 0.1414(2) . 1. 0
O3 O2- 96 g -.0345(2) 0.0750(2) 0.0710(2) . 1. 0
O4 O2- 96 g -.0693(2) 0.0732(2) 0.1794(2) . 1. 0
Na1 Na1+ 32 e 0.0475(2) 0.0475(2) 0.0475(2) . 0.97(2) 0
Na2 Na1+ 32 e 0.2283(1) 0.2283(1) 0.2283(1) . 0.93(2) 0
Na3 Na1+ 96 g 0.3944(8) 0.104(1) 0.146(1) . 0.16(1) 0
Na4 Na1+ 96 g 0.4042(7) 0.065(2) 0.068(2) . 0.18(2) 0
loop_
_atom_site_aniso_label
_atom_site_aniso_type_symbol
_atom_site_aniso_U_11
_atom_site_aniso_U_22
_atom_site_aniso_U_33
_atom_site_aniso_U_12
_atom_site_aniso_U_13
_atom_site_aniso_U_23
Si1 Si4+ 0.0237(7) 0.0193(6) 0.0161(6) -.0053(8) 0.0007(6) -.0034(8)
Al1 Al3+ 0.0237(8) 0.0148(6) 0.0180(7) 0.0006(7) -.0037(8) -.0028(8)
Si2 Si4+ 0.0237(8) 0.0148(6) 0.0180(7) 0.0006(7) -.0037(8) -.0028(8)
O1 O2- 0.031(2) 0.058(3) 0.032(2) -.014(2) -.002(2) -.010(3)
O2 O2- 0.029(2) 0.031(2) 0.037(2) 0.009(2) -.011(2) -.012(2)
O3 O2- 0.055(3) 0.030(2) 0.029(2) -.004(2) -.001(2) 0.006(2)
O4 O2- 0.035(2) 0.038(3) 0.039(3) -.002(2) -.001(2) -.022(2)
Na1 Na1+ 0.058(2) 0.058(2) 0.058(2) 0.010(2) 0.010(2) 0.010(2)
Na2 Na1+ 0.034(1) 0.034(1) 0.034(1) 0.011(1) 0.011(1) 0.011(1)
Na3 Na1+ 0.06(1) 0.10(2) 0.10(2) -.02(1) 0.02(1) 0.04(2)
Na4 Na1+ 0.02(1) 0.26(5) 0.21(4) 0.00(1) -.01(1) 0.07(3)
#End of TTdata_87850-ICSD