
#(C) 2019 by FIZ Karlsruhe - Leibniz Institute for Information Infrastructure.  All rights reserved.
data_88010-ICSD
_database_code_ICSD 88010
_audit_creation_date 2001-07-16
_chemical_name_systematic 'Disodium tecto-molybdotetratellurate(IV)'
_chemical_formula_structural 'Na2 (Mo Te4 O12)'
_chemical_formula_sum 'Mo1 Na2 O12 Te4'
_chemical_name_structure_type Na2WTe4O12
_exptl_crystal_density_diffrn 5.09
_cell_measurement_temperature 298.
_publ_section_title

;
Synthesis and characterization of novel three-dimensional tellurites, Na2 M
Te4 O12 (M = W, Mo), with intersecting tunnels
;
loop_
_citation_id
_citation_journal_full
_citation_year
_citation_journal_volume
_citation_page_first
_citation_page_last
_citation_journal_id_ASTM
primary 'Inorganic Chemistry' 1999 38 5809 5813 INOCAJ
loop_
_publ_author_name
'Balraj, V.'
'Vidyasagar, K.'
_cell_length_a 17.3410(40)
_cell_length_b 5.8262(11)
_cell_length_c 11.268(2)
_cell_angle_alpha 90.
_cell_angle_beta 104.38(2)
_cell_angle_gamma 90.
_cell_volume 1102.76
_cell_formula_units_Z 4
_symmetry_space_group_name_H-M 'C 1 2/c 1'
_symmetry_Int_Tables_number 15
_refine_ls_R_factor_all 0.029
loop_
_symmetry_equiv_pos_site_id
_symmetry_equiv_pos_as_xyz
1 'x, -y, z+1/2'
2 '-x, -y, -z'
3 '-x, y, -z+1/2'
4 'x, y, z'
5 'x+1/2, -y+1/2, z+1/2'
6 '-x+1/2, -y+1/2, -z'
7 '-x+1/2, y+1/2, -z+1/2'
8 'x+1/2, y+1/2, z'
loop_
_atom_type_symbol
_atom_type_oxidation_number
Mo6+ 6
Te4+ 4
O2- -2
Na1+ 1
loop_
_atom_site_label
_atom_site_type_symbol
_atom_site_symmetry_multiplicity
_atom_site_Wyckoff_symbol
_atom_site_fract_x
_atom_site_fract_y
_atom_site_fract_z
_atom_site_B_iso_or_equiv
_atom_site_occupancy
_atom_site_attached_hydrogens
Mo1 Mo6+ 4 e 0 0.3401(2) 0.25 0.010(1) 1. 0
Te1 Te4+ 8 f 0.4040(1) 0.2760(1) 0.4052(1) 0.011(1) 1. 0
Te2 Te4+ 8 f 0.3441(1) 0.1729(1) 0.0677(1) 0.011(1) 1. 0
O1 O2- 8 f 0.1098(3) 0.3975(9) 0.3389(5) 0.013(1) 1. 0
O2 O2- 8 f 0.2432(3) 0.0723(10) 0.0735(5) 0.017(1) 1. 0
O3 O2- 8 f 0.3377(3) 0.0079(10) 0.4112(5) 0.017(1) 1. 0
O4 O2- 8 f 0.3417(3) 0.3485(9) 0.2492(5) 0.014(1) 1. 0
O5 O2- 8 f 0.4880(3) 0.1263(9) 0.3664(5) 0.014(1) 1. 0
O6 O2- 8 f 0.0247(3) 0.1555(10) 0.1450(5) 0.019(1) 1. 0
Na1 Na1+ 8 f 0.2104(2) 0.2275(6) 0.2653(3) 0.021(1) 1. 0
#End of TTdata_88010-ICSD