
#(C) 2019 by FIZ Karlsruhe - Leibniz Institute for Information Infrastructure.  All rights reserved.
data_88556-ICSD
_database_code_ICSD 88556
_audit_creation_date 2001-07-16
_chemical_name_systematic 'Sodium tecto-alumosilicate *'
_chemical_formula_structural 'Na92 (Si100 Al92 O384)'
_chemical_formula_sum 'Al92 Na92 O384 Si100'
_chemical_name_structure_type Faujasite-Fd3--frame
_chemical_name_mineral 'Zeolite X (dehydrated)'
_exptl_crystal_density_diffrn 1.43
_cell_measurement_temperature 294.
_publ_section_title
'Reinvestigation of the crystal structure of dehydrated sodium zeolite X'
loop_
_citation_id
_citation_journal_full
_citation_year
_citation_journal_volume
_citation_page_first
_citation_page_last
_citation_journal_id_ASTM
primary 'Journal of Physical Chemistry B' 1999 103 9512 9518 JPCBFK
loop_
_publ_author_name
'Zhu, L.'
'Seff, K.'
_cell_length_a 25.077(4)
_cell_length_b 25.077(4)
_cell_length_c 25.077(4)
_cell_angle_alpha 90.
_cell_angle_beta 90.
_cell_angle_gamma 90.
_cell_volume 15769.82
_cell_formula_units_Z 1
_symmetry_space_group_name_H-M 'F d -3 Z'
_symmetry_Int_Tables_number 203
_refine_ls_R_factor_all 0.054
loop_
_symmetry_equiv_pos_site_id
_symmetry_equiv_pos_as_xyz
1 '-z, x+3/4, y+3/4'
2 'z+3/4, x+3/4, -y'
3 'z+3/4, -x, y+3/4'
4 '-z, -x, -y'
5 'y+3/4, -z, x+3/4'
6 '-y, z+3/4, x+3/4'
7 'y+3/4, z+3/4, -x'
8 '-y, -z, -x'
9 'x+3/4, y+3/4, -z'
10 'x+3/4, -y, z+3/4'
11 '-x, y+3/4, z+3/4'
12 '-x, -y, -z'
13 'z, -x+1/4, -y+1/4'
14 '-z+1/4, -x+1/4, y'
15 '-z+1/4, x, -y+1/4'
16 'z, x, y'
17 '-y+1/4, z, -x+1/4'
18 'y, -z+1/4, -x+1/4'
19 '-y+1/4, -z+1/4, x'
20 'y, z, x'
21 '-x+1/4, -y+1/4, z'
22 '-x+1/4, y, -z+1/4'
23 'x, -y+1/4, -z+1/4'
24 'x, y, z'
25 '-z, x+1/4, y+1/4'
26 'z+3/4, x+1/4, -y+1/2'
27 'z+3/4, -x+1/2, y+1/4'
28 '-z, -x+1/2, -y+1/2'
29 'y+3/4, -z+1/2, x+1/4'
30 '-y, z+1/4, x+1/4'
31 'y+3/4, z+1/4, -x+1/2'
32 '-y, -z+1/2, -x+1/2'
33 'x+3/4, y+1/4, -z+1/2'
34 'x+3/4, -y+1/2, z+1/4'
35 '-x, y+1/4, z+1/4'
36 '-x, -y+1/2, -z+1/2'
37 'z, -x+3/4, -y+3/4'
38 '-z+1/4, -x+3/4, y+1/2'
39 '-z+1/4, x+1/2, -y+3/4'
40 'z, x+1/2, y+1/2'
41 '-y+1/4, z+1/2, -x+3/4'
42 'y, -z+3/4, -x+3/4'
43 '-y+1/4, -z+3/4, x+1/2'
44 'y, z+1/2, x+1/2'
45 '-x+1/4, -y+3/4, z+1/2'
46 '-x+1/4, y+1/2, -z+3/4'
47 'x, -y+3/4, -z+3/4'
48 'x, y+1/2, z+1/2'
49 '-z+1/2, x+3/4, y+1/4'
50 'z+1/4, x+3/4, -y+1/2'
51 'z+1/4, -x, y+1/4'
52 '-z+1/2, -x, -y+1/2'
53 'y+1/4, -z, x+1/4'
54 '-y+1/2, z+3/4, x+1/4'
55 'y+1/4, z+3/4, -x+1/2'
56 '-y+1/2, -z, -x+1/2'
57 'x+1/4, y+3/4, -z+1/2'
58 'x+1/4, -y, z+1/4'
59 '-x+1/2, y+3/4, z+1/4'
60 '-x+1/2, -y, -z+1/2'
61 'z+1/2, -x+1/4, -y+3/4'
62 '-z+3/4, -x+1/4, y+1/2'
63 '-z+3/4, x, -y+3/4'
64 'z+1/2, x, y+1/2'
65 '-y+3/4, z, -x+3/4'
66 'y+1/2, -z+1/4, -x+3/4'
67 '-y+3/4, -z+1/4, x+1/2'
68 'y+1/2, z, x+1/2'
69 '-x+3/4, -y+1/4, z+1/2'
70 '-x+3/4, y, -z+3/4'
71 'x+1/2, -y+1/4, -z+3/4'
72 'x+1/2, y, z+1/2'
73 '-z+1/2, x+1/4, y+3/4'
74 'z+1/4, x+1/4, -y'
75 'z+1/4, -x+1/2, y+3/4'
76 '-z+1/2, -x+1/2, -y'
77 'y+1/4, -z+1/2, x+3/4'
78 '-y+1/2, z+1/4, x+3/4'
79 'y+1/4, z+1/4, -x'
80 '-y+1/2, -z+1/2, -x'
81 'x+1/4, y+1/4, -z'
82 'x+1/4, -y+1/2, z+3/4'
83 '-x+1/2, y+1/4, z+3/4'
84 '-x+1/2, -y+1/2, -z'
85 'z+1/2, -x+3/4, -y+1/4'
86 '-z+3/4, -x+3/4, y'
87 '-z+3/4, x+1/2, -y+1/4'
88 'z+1/2, x+1/2, y'
89 '-y+3/4, z+1/2, -x+1/4'
90 'y+1/2, -z+3/4, -x+1/4'
91 '-y+3/4, -z+3/4, x'
92 'y+1/2, z+1/2, x'
93 '-x+3/4, -y+3/4, z'
94 '-x+3/4, y+1/2, -z+1/4'
95 'x+1/2, -y+3/4, -z+1/4'
96 'x+1/2, y+1/2, z'
loop_
_atom_type_symbol
_atom_type_oxidation_number
Si4+ 4
Al3+ 3
Si4+ 4
O2- -2
Na1+ 1
loop_
_atom_site_label
_atom_site_type_symbol
_atom_site_symmetry_multiplicity
_atom_site_Wyckoff_symbol
_atom_site_fract_x
_atom_site_fract_y
_atom_site_fract_z
_atom_site_B_iso_or_equiv
_atom_site_occupancy
_atom_site_attached_hydrogens
Si1 Si4+ 96 g -.0545(1) 0.1257(1) 0.0353(1) . 1. 0
Al1 Al3+ 96 g -.0553(1) 0.0360(1) 0.1246(1) . 0.9583 0
Si2 Si4+ 96 g -.0553(1) 0.0360(1) 0.1246(1) . 0.0417 0
O1 O2- 96 g 0.8902(4) -.0001(2) 0.1068(2) . 1. 0
O2 O2- 96 g -.0014(2) -.0024(2) 0.1413(2) . 1. 0
O3 O2- 96 g -.0349(2) 0.0750(2) 0.0724(2) . 1. 0
O4 O2- 96 g -.0697(2) 0.0716(2) 0.1797(2) . 1. 0
Na1 Na1+ 32 e 0.0475(2) 0.0475(2) 0.0475(2) . 1. 0
Na2 Na1+ 32 e 0.2298(2) 0.2298(2) 0.2298(2) . 1. 0
Na3 Na1+ 96 g 0.0334(71) 0.0675(44) 0.4138(42) . 0.104(42) 0
Na4 Na1+ 96 g 0.0692(32) 0.0407(41) 0.4073(13) . 0.188(42) 0
loop_
_atom_site_aniso_label
_atom_site_aniso_type_symbol
_atom_site_aniso_U_11
_atom_site_aniso_U_22
_atom_site_aniso_U_33
_atom_site_aniso_U_12
_atom_site_aniso_U_13
_atom_site_aniso_U_23
Si1 Si4+ 0.026(2) 0.021(1) 0.020(1) -.001(1) 0.001(1) 0.004(1)
Al1 Al3+ 0.020(1) 0.013(1) 0.019(1) -.005(1) 0.001(1) 0.001(1)
Si2 Si4+ 0.020(1) 0.013(1) 0.019(1) -.005(1) 0.001(1) 0.001(1)
O1 O2- 0.037(3) 0.042(3) 0.032(3) -.007(3) 0.001(3) -.007(3)
O2 O2- 0.027(3) 0.024(3) 0.032(3) 0.010(2) 0.008(3) 0.014(2)
O3 O2- 0.045(3) 0.029(2) 0.023(3) 0.007(2) 0.006(2) 0.006(3)
O4 O2- 0.031(3) 0.025(3) 0.029(3) -.022(3) 0.011(3) -.003(3)
Na1 Na1+ 0.050(4) 0.050(4) 0.050(4) 0.009(3) 0.009(3) 0.009(3)
Na2 Na1+ 0.036(2) 0.036(2) 0.036(2) 0.014(3) 0.014(3) 0.014(3)
Na3 Na1+ 0.151(74) 0.138(36) 0.122(75) -.062(57) -.008(69) -.050(71)
Na4 Na1+ 0.129(52) 0.36(11) 0.134(24) -.064(37) 0.002(23) 0.040(72)
#End of TTdata_88556-ICSD