
#(C) 2019 by FIZ Karlsruhe - Leibniz Institute for Information Infrastructure.  All rights reserved.
data_88786-ICSD
_database_code_ICSD 88786
_audit_creation_date 2001-07-16
_chemical_name_systematic 'Disodium phyllo-germanotellurate - alpha'
_chemical_formula_structural 'Na2 (Ge Te O6)'
_chemical_formula_sum 'Ge1 Na2 O6 Te1'
_chemical_name_structure_type FePSe3
_exptl_crystal_density_diffrn 4.74
_publ_section_title

;
Structural studies and order-disorder phenomenon in a series of new quaternary
tellurates of the type A(2+) M(4+) Te(6+) O6 and A(1+)2 M(4+) Te(6+) O6
;
loop_
_citation_id
_citation_journal_full
_citation_year
_citation_journal_volume
_citation_page_first
_citation_page_last
_citation_journal_id_ASTM
primary 'Journal of Solid State Chemistry' 1999 147 99 116 JSSCBI
loop_
_publ_author_name
'Woodward, P.M.'
'Sleight, A.W.'
'Du, L.-S.'
'Grey, C.P.'
_cell_length_a 5.10118(4)
_cell_length_b 5.10118(4)
_cell_length_c 15.9590(2)
_cell_angle_alpha 90.
_cell_angle_beta 90.
_cell_angle_gamma 120.
_cell_volume 359.65
_cell_formula_units_Z 3
_symmetry_space_group_name_H-M 'R -3 H'
_symmetry_Int_Tables_number 148
_refine_ls_R_factor_all 0.043
loop_
_symmetry_equiv_pos_site_id
_symmetry_equiv_pos_as_xyz
1 'x-y, x, -z'
2 'y, -x+y, -z'
3 '-x, -y, -z'
4 '-x+y, -x, z'
5 '-y, x-y, z'
6 'x, y, z'
7 'x-y+2/3, x+1/3, -z+1/3'
8 'y+2/3, -x+y+1/3, -z+1/3'
9 '-x+2/3, -y+1/3, -z+1/3'
10 '-x+y+2/3, -x+1/3, z+1/3'
11 '-y+2/3, x-y+1/3, z+1/3'
12 'x+2/3, y+1/3, z+1/3'
13 'x-y+1/3, x+2/3, -z+2/3'
14 'y+1/3, -x+y+2/3, -z+2/3'
15 '-x+1/3, -y+2/3, -z+2/3'
16 '-x+y+1/3, -x+2/3, z+2/3'
17 '-y+1/3, x-y+2/3, z+2/3'
18 'x+1/3, y+2/3, z+2/3'
loop_
_atom_type_symbol
_atom_type_oxidation_number
Na1+ 1
Ge4+ 4
Te6+ 6
O2- -2
loop_
_atom_site_label
_atom_site_type_symbol
_atom_site_symmetry_multiplicity
_atom_site_Wyckoff_symbol
_atom_site_fract_x
_atom_site_fract_y
_atom_site_fract_z
_atom_site_B_iso_or_equiv
_atom_site_occupancy
_atom_site_attached_hydrogens
Na1 Na1+ 6 c 0 0 0.1413(1) 1.20(4) 1. 0
Ge1 Ge4+ 6 c 0 0 0.3373(9) 0.22(1) 0.5 0
Te1 Te6+ 6 c 0 0 0.3373(9) 0.22(1) 0.5 0
O1 O2- 18 f 0.2797(4) -.0491(4) 0.2651(1) 0.37(5) 1. 0
#End of TTdata_88786-ICSD