
#(C) 2019 by FIZ Karlsruhe - Leibniz Institute for Information Infrastructure.  All rights reserved.
data_88805-ICSD
_database_code_ICSD 88805
_audit_creation_date 2001-07-16
_audit_update_record 2015-02-01
_chemical_name_systematic
'Sodium aluminium phosphate(V) fluoride (2.82/2/2/3) - alpha'
_chemical_formula_structural 'Na2.82 Al2 (P O4)2 F3'
_chemical_formula_sum 'Al2 F3 Na2.82 O8 P2'
_chemical_name_structure_type Al2Na3-x(PO4)2F3
_exptl_crystal_density_diffrn 3.03
_publ_section_title

;
Phase transitions in the Na3 M2 (P O4)2 F3 family (M = Al(3+), V(3+), Cr(3+),
Fe(3+), Ga(3+)) : synthesis, thermal, structural and magnetic studies
;
loop_
_citation_id
_citation_journal_full
_citation_year
_citation_journal_volume
_citation_page_first
_citation_page_last
_citation_journal_id_ASTM
primary 'Journal of Solid State Chemistry' 1999 148 260 277 JSSCBI
loop_
_publ_author_name
'le Meins, J.M.'
'Crosnier-Lopez, M.P.'
'Hemon-Ribaud, A.'
'Courbion, G.'
_cell_length_a 6.206(1)
_cell_length_b 6.206(1)
_cell_length_c 10.418(4)
_cell_angle_alpha 90.
_cell_angle_beta 90.
_cell_angle_gamma 90.
_cell_volume 401.24
_cell_formula_units_Z 2
_symmetry_space_group_name_H-M 'I 4/m m m'
_symmetry_Int_Tables_number 139
_refine_ls_R_factor_all 0.027
loop_
_symmetry_equiv_pos_site_id
_symmetry_equiv_pos_as_xyz
1 'y, x, -z'
2 '-y, -x, -z'
3 '-y, x, -z'
4 'y, -x, -z'
5 '-x, y, -z'
6 'x, -y, -z'
7 'x, y, -z'
8 '-x, -y, -z'
9 '-y, -x, z'
10 'y, x, z'
11 'y, -x, z'
12 '-y, x, z'
13 'x, -y, z'
14 '-x, y, z'
15 '-x, -y, z'
16 'x, y, z'
17 'y+1/2, x+1/2, -z+1/2'
18 '-y+1/2, -x+1/2, -z+1/2'
19 '-y+1/2, x+1/2, -z+1/2'
20 'y+1/2, -x+1/2, -z+1/2'
21 '-x+1/2, y+1/2, -z+1/2'
22 'x+1/2, -y+1/2, -z+1/2'
23 'x+1/2, y+1/2, -z+1/2'
24 '-x+1/2, -y+1/2, -z+1/2'
25 '-y+1/2, -x+1/2, z+1/2'
26 'y+1/2, x+1/2, z+1/2'
27 'y+1/2, -x+1/2, z+1/2'
28 '-y+1/2, x+1/2, z+1/2'
29 'x+1/2, -y+1/2, z+1/2'
30 '-x+1/2, y+1/2, z+1/2'
31 '-x+1/2, -y+1/2, z+1/2'
32 'x+1/2, y+1/2, z+1/2'
loop_
_atom_type_symbol
_atom_type_oxidation_number
Na1+ 1
Al3+ 3
P5+ 5
O2- -2
F1- -1
loop_
_atom_site_label
_atom_site_type_symbol
_atom_site_symmetry_multiplicity
_atom_site_Wyckoff_symbol
_atom_site_fract_x
_atom_site_fract_y
_atom_site_fract_z
_atom_site_B_iso_or_equiv
_atom_site_occupancy
_atom_site_attached_hydrogens
Na1 Na1+ 8 h 0.2823(3) 0.2823(3) 0 3.0(1) 0.496(12) 0
Na2 Na1+ 8 j 0.5 0.226(1) 0 9.(1) 0.208(12) 0
Al1 Al3+ 4 e 0 0 0.17930(6) 0.442(8) 1. 0
P1 P5+ 4 d 0 0.5 0.25 0.366(6) 1. 0
O1 O2- 16 n 0 0.3026(1) 0.16185(7) 0.789(1) 1. 0
F1 F1- 2 a 0 0 0 0.60(2) 1. 0
F2 F1- 4 e 0 0 0.3543(1) 0.97(1) 1. 0
#End of TTdata_88805-ICSD