
#(C) 2019 by FIZ Karlsruhe - Leibniz Institute for Information Infrastructure.  All rights reserved.
data_88806-ICSD
_database_code_ICSD 88806
_audit_creation_date 2001-07-16
_audit_update_record 2007-08-01
_chemical_name_systematic
'Sodium aluminium phosphate(V) fluoride (3.12/2/2/3) - beta1'
_chemical_formula_structural 'Na3.12 Al2 (P O4)2 F3'
_chemical_formula_sum 'Al2 F3 Na3.12 O8 P2'
_exptl_crystal_density_diffrn 3.09
_publ_section_title

;
Phase transitions in the Na3 M2 (P O4)2 F3 family (M = Al(3+), V(3+), Cr(3+),
Fe(3+), Ga(3+)) : synthesis, thermal, structural and magnetic studies
;
loop_
_citation_id
_citation_journal_full
_citation_year
_citation_journal_volume
_citation_page_first
_citation_page_last
_citation_journal_id_ASTM
primary 'Journal of Solid State Chemistry' 1999 148 260 277 JSSCBI
loop_
_publ_author_name
'le Meins, J.M.'
'Crosnier-Lopez, M.P.'
'Hemon-Ribaud, A.'
'Courbion, G.'
_cell_length_a 12.406(2)
_cell_length_b 12.406(2)
_cell_length_c 10.411(2)
_cell_angle_alpha 90.
_cell_angle_beta 90.
_cell_angle_gamma 90.
_cell_volume 1602.34
_cell_formula_units_Z 8
_symmetry_space_group_name_H-M 'P 42/m b c'
_symmetry_Int_Tables_number 135
_refine_ls_R_factor_all 0.032
loop_
_symmetry_equiv_pos_site_id
_symmetry_equiv_pos_as_xyz
1 '-y+1/2, -x+1/2, z+1/2'
2 '-x+1/2, y+1/2, z'
3 'y, -x, z+1/2'
4 '-x, -y, z'
5 '-y+1/2, -x+1/2, -z+1/2'
6 '-x+1/2, y+1/2, -z'
7 'y, -x, -z+1/2'
8 '-x, -y, -z'
9 'y+1/2, x+1/2, -z+1/2'
10 'x+1/2, -y+1/2, -z'
11 '-y, x, -z+1/2'
12 'x, y, -z'
13 'y+1/2, x+1/2, z+1/2'
14 'x+1/2, -y+1/2, z'
15 '-y, x, z+1/2'
16 'x, y, z'
loop_
_atom_type_symbol
_atom_type_oxidation_number
Na1+ 1
Al3+ 3
P5+ 5
F1- -1
O2- -2
loop_
_atom_site_label
_atom_site_type_symbol
_atom_site_symmetry_multiplicity
_atom_site_Wyckoff_symbol
_atom_site_fract_x
_atom_site_fract_y
_atom_site_fract_z
_atom_site_B_iso_or_equiv
_atom_site_occupancy
_atom_site_attached_hydrogens
Na1 Na1+ 8 h 0.3674(4) 0.6030(2) 0 2.50(11) 0.540(8) 0
Na2 Na1+ 8 h 0.1381(3) 0.6063(4) 0 2.1(1) 0.498(10) 0
Na3 Na1+ 8 h 0.1487(4) 0.3843(6) 0 3.4(2) 0.416(10) 0
Na4 Na1+ 8 h 0.3564(5) 0.3896(4) 0 3.6(2) 0.432(8) 0
Na5 Na1+ 8 h 0.3936(5) 0.5024(6) 0 3.7(4) 0.228(8) 0
Na6 Na1+ 8 h 0.1122(17) 0.5139(5) 0 13.(1) 0.318(16) 0
Na7 Na1+ 8 h 0.2547(3) 0.3638(12) 0 7.7(6) 0.368(12) 0
Na8 Na1+ 8 h 0.2611(6) 0.6318(32) 0 22.(2) 0.320(12) 0
Al1 Al3+ 16 i -.00003(2) 0.24989(6) 0.17922(5) 0.45(2) 1. 0
P1 P5+ 4 b 0 0 0.25 0.40(2) 1. 0
P2 P5+ 4 d 0 0.5 0.25 0.42(2) 1. 0
P3 P5+ 8 g 0.24936(2) 0.74936(2) 0.25 0.38(2) 1. 0
F1 F1- 8 h 0.0082(6) 0.2503(2) 0 0.51(2) 1. 0
F2 F1- 16 i -.00115(4) 0.2502(1) 0.3545(1) 0.97(2) 1. 0
O1 O2- 16 i 0.0991(1) 0.00117(5) 0.3372(2) 0.80(3) 1. 0
O2 O2- 16 i 0.5988(1) 0.00036(5) 0.3380(2) 0.88(3) 1. 0
O3 O2- 16 i 0.2508(1) 0.3486(1) 0.3372(2) 0.76(3) 1. 0
O4 O2- 16 i 0.7516(1) 0.3486(1) 0.3392(2) 0.72(3) 1. 0
#End of TTdata_88806-ICSD