
#(C) 2019 by FIZ Karlsruhe - Leibniz Institute for Information Infrastructure.  All rights reserved.
data_88808-ICSD
_database_code_ICSD 88808
_audit_creation_date 2001-07-16
_audit_update_record 2006-04-01
_chemical_name_systematic
'Trisodium divanadium(III) bis(phosphate(V)) trifluoride - beta2'
_chemical_formula_structural 'Na3 V2 (P O4)2 F3'
_chemical_formula_sum 'F3 Na3 O8 P2 V2'
_exptl_crystal_density_diffrn 3.17
_publ_section_title

;
Phase transitions in the Na3 M2 (P O4)2 F3 family (M = Al(3+), V(3+), Cr(3+),
Fe(3+), Ga(3+)) : synthesis, thermal, structural and magnetic studies
;
loop_
_citation_id
_citation_journal_full
_citation_year
_citation_journal_volume
_citation_page_first
_citation_page_last
_citation_journal_id_ASTM
primary 'Journal of Solid State Chemistry' 1999 148 260 277 JSSCBI
loop_
_publ_author_name
'le Meins, J.M.'
'Crosnier-Lopez, M.P.'
'Hemon-Ribaud, A.'
'Courbion, G.'
_cell_length_a 9.047(2)
_cell_length_b 9.047(2)
_cell_length_c 10.705(2)
_cell_angle_alpha 90.
_cell_angle_beta 90.
_cell_angle_gamma 90.
_cell_volume 876.19
_cell_formula_units_Z 4
_symmetry_space_group_name_H-M 'P 42/m n m'
_symmetry_Int_Tables_number 136
_refine_ls_R_factor_all 0.047
loop_
_symmetry_equiv_pos_site_id
_symmetry_equiv_pos_as_xyz
1 '-y+1/2, x+1/2, -z+1/2'
2 'y+1/2, -x+1/2, -z+1/2'
3 'y, x, -z'
4 '-y, -x, -z'
5 'y+1/2, -x+1/2, z+1/2'
6 '-y+1/2, x+1/2, z+1/2'
7 '-y, -x, z'
8 'y, x, z'
9 'x+1/2, -y+1/2, -z+1/2'
10 '-x+1/2, y+1/2, -z+1/2'
11 'x, y, -z'
12 '-x, -y, -z'
13 '-x+1/2, y+1/2, z+1/2'
14 'x+1/2, -y+1/2, z+1/2'
15 '-x, -y, z'
16 'x, y, z'
loop_
_atom_type_symbol
_atom_type_oxidation_number
Na1+ 1
V3+ 3
P5+ 5
O2- -2
F1- -1
loop_
_atom_site_label
_atom_site_type_symbol
_atom_site_symmetry_multiplicity
_atom_site_Wyckoff_symbol
_atom_site_fract_x
_atom_site_fract_y
_atom_site_fract_z
_atom_site_B_iso_or_equiv
_atom_site_occupancy
_atom_site_attached_hydrogens
Na1 Na1+ 8 i 0.5234(3) 0.2299(5) 0 2.93(7) 1. 0
Na2 Na1+ 8 i 0.803(1) 0.0512(8) 0 8.3(3) 0.5 0
V1 V3+ 8 j 0.24783(6) 0.24783(6) 0.18845(4) 0.578(2) 1. 0
P1 P5+ 4 d 0 0.5 0.25 0.88(4) 1. 0
P2 P5+ 4 e 0 0 0.2553(1) 0.08(3) 1. 0
O1 O2- 16 k 0.0969(4) 0.4059(4) 0.1629(5) 1.02(8) 1. 0
O2 O2- 8 j 0.0947(4) 0.0947(4) 0.1682(5) 0.87(7) 1. 0
O3 O2- 8 j 0.4031(4) 0.4031(4) 0.1605(5) 0.79(8) 1. 0
F1 F1- 4 f 0.2476(3) 0.2476(3) 0 0.59(1) 1. 0
F2 F1- 8 j 0.2466(2) 0.2466(2) 0.3642(2) 0.96(1) 1. 0
#End of TTdata_88808-ICSD