
#(C) 2019 by FIZ Karlsruhe - Leibniz Institute for Information Infrastructure.  All rights reserved.
data_88872-ICSD
_database_code_ICSD 88872
_audit_creation_date 2001-07-16
_audit_update_record 2009-02-01
_chemical_name_systematic 'Sodium magnesium titanium oxide (5.42/0.7/7.3/18)'
_chemical_formula_structural 'Na5.42 (Mg0.7 Ti7.3) O18'
_chemical_formula_sum 'Mg0.7 Na5.42 O18 Ti7.3'
_exptl_crystal_density_diffrn 3.67
_publ_section_title

;
Crystal structure and ionic conductivity of a new sodium magnesium titanium
oxide
;
loop_
_citation_id
_citation_journal_full
_citation_year
_citation_journal_volume
_citation_page_first
_citation_page_last
_citation_journal_id_ASTM
primary Kristallografiya 1999 44 1029 1033 KRISAJ
loop_
_publ_author_name
'Shilov, G.V.'
'Atovmyan, L.O.'
'Volochaev, V.A.'
'Nalbadyan, V.B.'
_cell_length_a 23.0630(80)
_cell_length_b 10.689(4)
_cell_length_c 2.944(2)
_cell_angle_alpha 90.
_cell_angle_beta 90.
_cell_angle_gamma 76.40(4)
_cell_volume 705.41
_cell_formula_units_Z 2
_symmetry_space_group_name_H-M 'B 1 1 2/m'
_symmetry_Int_Tables_number 12
_refine_ls_R_factor_all 0.051
loop_
_symmetry_equiv_pos_site_id
_symmetry_equiv_pos_as_xyz
1 '-x, -y, z'
2 '-x, -y, -z'
3 'x, y, -z'
4 'x, y, z'
5 '-x+1/2, -y, z+1/2'
6 '-x+1/2, -y, -z+1/2'
7 'x+1/2, y, -z+1/2'
8 'x+1/2, y, z+1/2'
loop_
_atom_type_symbol
_atom_type_oxidation_number
Ti4+ 4
Mg2+ 2
Ti4+ 4
Mg2+ 2
Ti4+ 4
Mg2+ 2
Ti4+ 4
Mg2+ 2
Ti4+ 4
Mg2+ 2
Na1+ 1
O2- -2
loop_
_atom_site_label
_atom_site_type_symbol
_atom_site_symmetry_multiplicity
_atom_site_Wyckoff_symbol
_atom_site_fract_x
_atom_site_fract_y
_atom_site_fract_z
_atom_site_B_iso_or_equiv
_atom_site_occupancy
_atom_site_attached_hydrogens
Ti1 Ti4+ 2 a 0 0 0 0.598(10) 0.9125 0
Mg1 Mg2+ 2 a 0 0 0 0.598(10) 0.0875 0
Ti2 Ti4+ 4 i 0.22367(2) 0.62606(4) 0.5 0.541(8) 0.9125 0
Mg2 Mg2+ 4 i 0.22367(2) 0.62606(4) 0.5 0.541(8) 0.0875 0
Ti3 Ti4+ 4 i 0.21558(2) 0.12230(4) 0.5 0.532(8) 0.9125 0
Mg3 Mg2+ 4 i 0.21558(2) 0.12230(4) 0.5 0.532(8) 0.0875 0
Ti4 Ti4+ 4 i 0.43951(2) 0.80771(4) 0 0.571(8) 0.9125 0
Mg4 Mg2+ 4 i 0.43951(2) 0.80771(4) 0 0.571(8) 0.0875 0
Ti5 Ti4+ 2 d 0 0.5 0 1.70(2) 0.9125 0
Mg5 Mg2+ 2 d 0.0(7) 0.5 0 1.70(2) 0.0875 0
Na1 Na1+ 4 i 0.36196(6) 0.60476(1) 0.5 0.89(2) 1. 0
Na2 Na1+ 4 i 0.5729(2) 0.6932(3) 0.5 3.9(2) 0.62 0
Na3 Na1+ 4 i 0.1435(3) 0.9063(8) 0.5 1.4(2) 0.7 0
Na4 Na1+ 4 i 0.5833(5) 0.6928(10) 0 9.(2) 0.19 0
Na5 Na1+ 8 j 0.1397(7) 0.8954(13) 0.33(3) 2.3(9) 0.1 0
O1 O2- 4 i 0.42618(8) 0.9405(2) 0.5 0.53(2) 1. 0
O2 O2- 4 i 0.52553(9) 0.8764(2) 0 0.66(2) 1. 0
O3 O2- 4 i 0.47209(8) 0.6927(2) 0.5 0.49(2) 1. 0
O4 O2- 4 i 0.17161(8) 0.6881(2) 0 0.68(2) 1. 0
O5 O2- 4 i 0.29699(7) 0.9917(2) 0.5 0.36(2) 1. 0
O6 O2- 4 i 0.25807(8) 0.7810(2) 0.5 0.51(2) 1. 0
O7 O2- 4 i 0.44402(8) 0.4893(2) 0 0.51(2) 1. 0
O8 O2- 4 i 0.36395(8) 0.7816(2) 0 0.52(2) 1. 0
O9 O2- 4 i 0.21519(8) 0.4483(2) 0.5 0.48(2) 1. 0
#End of TTdata_88872-ICSD