
#(C) 2019 by FIZ Karlsruhe - Leibniz Institute for Information Infrastructure.  All rights reserved.
data_89616-ICSD
_database_code_ICSD 89616
_audit_creation_date 2002-04-01
_chemical_name_systematic 'Disodium zinc hydroxide'
_chemical_formula_structural 'Na2 Zn (O H)4'
_chemical_formula_sum 'H4 Na2 O4 Zn1'
_exptl_crystal_density_diffrn 2.7
_publ_section_title 'Synthese und Kristallstruktur von Na2 Zn (O H)4'
loop_
_citation_id
_citation_journal_full
_citation_year
_citation_journal_volume
_citation_page_first
_citation_page_last
_citation_journal_id_ASTM
primary 'Zeitschrift fuer Anorganische und Allgemeine Chemie (1950) (DE)' 1999
625 48 50 ZAACAB
loop_
_publ_author_name
'Stahl, R.'
'Niewa, R.'
'Jacobs, H.'
_cell_length_a 7.959(3)
_cell_length_b 6.534(1)
_cell_length_c 8.501(3)
_cell_angle_alpha 90.
_cell_angle_beta 93.97(3)
_cell_angle_gamma 90.
_cell_volume 441.03
_cell_formula_units_Z 4
_symmetry_space_group_name_H-M 'P 1 21/n 1'
_symmetry_Int_Tables_number 14
_refine_ls_R_factor_all 0.043
loop_
_symmetry_equiv_pos_site_id
_symmetry_equiv_pos_as_xyz
1 '-x+1/2, y+1/2, -z+1/2'
2 '-x, -y, -z'
3 'x+1/2, -y+1/2, z+1/2'
4 'x, y, z'
loop_
_atom_type_symbol
_atom_type_oxidation_number
Zn2+ 2
Na1+ 1
O2- -2
H1+ 1
loop_
_atom_site_label
_atom_site_type_symbol
_atom_site_symmetry_multiplicity
_atom_site_Wyckoff_symbol
_atom_site_fract_x
_atom_site_fract_y
_atom_site_fract_z
_atom_site_B_iso_or_equiv
_atom_site_occupancy
_atom_site_attached_hydrogens
Zn1 Zn2+ 4 e 0.54734(3) 0.24934(3) 0.86201(2) . 1. 0
Na1 Na1+ 4 e 0.7242(1) 0.0636(1) 0.2128(1) . 1. 0
Na2 Na1+ 4 e 0.0086(1) 0.2478(1) 0.9910(1) . 1. 0
O1 O2- 4 e 0.2195(2) 0.1858(3) 0.5253(2) . 1. 0
O2 O2- 4 e 0.3166(2) 0.2378(2) 0.9407(2) . 1. 0
O3 O2- 4 e 0.5548(2) 0.0033(3) 0.7313(2) . 1. 0
O4 O2- 4 e 0.0294(2) 0.0229(2) 0.2085(2) . 1. 0
H1 H1+ 4 e 0.219(3) 0.062(4) 0.523(4) 0.016(6) 1. 0
H2 H1+ 4 e 0.830(4) 0.302(5) 0.523(4) 0.031(8) 1. 0
H3 H1+ 4 e 0.349(4) 0.031(6) 0.278(4) 0.040(9) 1. 0
H4 H1+ 4 e 0.971(5) 0.071(5) 0.752(5) 0.051(12) 1. 0
loop_
_atom_site_aniso_label
_atom_site_aniso_type_symbol
_atom_site_aniso_U_11
_atom_site_aniso_U_22
_atom_site_aniso_U_33
_atom_site_aniso_U_12
_atom_site_aniso_U_13
_atom_site_aniso_U_23
Zn1 Zn2+ 0.0138(1) 0.0190(1) 0.0154(1) -.00123(8) 0.00148(6) -.00015(7)
Na1 Na1+ 0.0178(4) 0.0227(4) 0.0189(3) -.0025(3) 0.0034(3) -.0020(3)
Na2 Na1+ 0.0232(4) 0.0236(4) 0.0204(4) 0.0000(3) 0.0066(3) 0.0002(3)
O1 O2- 0.0186(6) 0.0219(6) 0.0222(6) 0.0007(5) -.0037(5) -.0010(6)
O2 O2- 0.0170(6) 0.0218(6) 0.0168(5) -.0006(5) 0.0044(4) 0.0009(5)
O3 O2- 0.0179(7) 0.0256(7) 0.0263(7) 0.0000(5) 0.0068(6) -.0082(6)
O4 O2- 0.0267(7) 0.0191(6) 0.0179(5) 0.0013(5) 0.0031(5) -.0021(5)
#End of TTdata_89616-ICSD