
#(C) 2019 by FIZ Karlsruhe - Leibniz Institute for Information Infrastructure.  All rights reserved.
data_89638-ICSD
_database_code_ICSD 89638
_audit_creation_date 2002-04-01
_chemical_name_systematic 'Disodium selenate(IV)'
_chemical_formula_structural 'Na2 (Se O3)'
_chemical_formula_sum 'Na2 O3 Se1'
_chemical_name_structure_type Ag2SeO3
_exptl_crystal_density_diffrn 3.44
_publ_section_title

;
The crystal structure of sodium selenite Na2 Se O3 from powder diffraction
data
;
loop_
_citation_id
_citation_journal_full
_citation_year
_citation_journal_volume
_citation_page_first
_citation_page_last
_citation_journal_id_ASTM
primary 'Zeitschrift fuer Kristallographie' 1999 214 151 153 ZEKRDZ
loop_
_publ_author_name
'Helmholdt, R.B.'
'Sonneveld, E.J.'
'Schenk, H.'
_cell_length_a 4.8963(2)
_cell_length_b 9.9849(4)
_cell_length_c 6.8391(3)
_cell_angle_alpha 90.
_cell_angle_beta 91.994(3)
_cell_angle_gamma 90.
_cell_volume 334.15
_cell_formula_units_Z 4
_symmetry_space_group_name_H-M 'P 1 21/c 1'
_symmetry_Int_Tables_number 14
_refine_ls_R_factor_all 0.033
loop_
_symmetry_equiv_pos_site_id
_symmetry_equiv_pos_as_xyz
1 'x, -y+1/2, z+1/2'
2 '-x, -y, -z'
3 '-x, y+1/2, -z+1/2'
4 'x, y, z'
loop_
_atom_type_symbol
_atom_type_oxidation_number
Se4+ 4
Na1+ 1
O2- -2
loop_
_atom_site_label
_atom_site_type_symbol
_atom_site_symmetry_multiplicity
_atom_site_Wyckoff_symbol
_atom_site_fract_x
_atom_site_fract_y
_atom_site_fract_z
_atom_site_B_iso_or_equiv
_atom_site_occupancy
_atom_site_attached_hydrogens
Se1 Se4+ 4 e 0.7713(6) 0.0851(3) 0.1876(4) 0.3(1) 1. 0
Na1 Na1+ 4 e 0.739(2) 0.407(1) 0.154(1) 1.1(3) 1. 0
Na2 Na1+ 4 e 0.755(2) 0.744(1) 0.092(1) 0.4(3) 1. 0
O1 O2- 4 e 0.734(2) 0.201(1) 0.362(1) 0.8(5) 1. 0
O2 O2- 4 e 0.743(3) -.065(1) 0.326(1) 1.1(4) 1. 0
O3 O2- 4 e 0.115(2) 0.087(2) 0.173(1) 1.2(4) 1. 0
#End of TTdata_89638-ICSD