
#(C) 2019 by FIZ Karlsruhe - Leibniz Institute for Information Infrastructure.  All rights reserved.
data_89652-ICSD
_database_code_ICSD 89652
_audit_creation_date 2002-04-01
_audit_update_record 2007-04-01
_chemical_name_systematic 'Lithium sodium carbonate - gamma'
_chemical_formula_structural 'Li Na (C O3)'
_chemical_formula_sum 'C1 Li1 Na1 O3'
_exptl_crystal_density_diffrn 2.21
_cell_measurement_temperature 713.
_publ_section_title

;
X-ray high temperature powder diffraction study and computer simulation of
gamma-(Li Na C O3)
;
loop_
_citation_id
_citation_journal_full
_citation_year
_citation_journal_volume
_citation_page_first
_citation_page_last
_citation_journal_id_ASTM
primary 'Zeitschrift fuer Kristallographie' 1999 214 255 258 ZEKRDZ
loop_
_publ_author_name
'Zhukov, S.G.'
'Yatsenko, A.V.'
'Chernyshev, V.V.'
'D'yakov, V.A. (Dyakov, V.A.)'
'le Loux, R.'
'Schenk, H.'
_cell_length_a 8.3115(1)
_cell_length_b 8.3115(1)
_cell_length_c 3.3858(1)
_cell_angle_alpha 90.
_cell_angle_beta 90.
_cell_angle_gamma 120.
_cell_volume 202.56
_cell_formula_units_Z 3
_symmetry_space_group_name_H-M 'P -6'
_symmetry_Int_Tables_number 174
_refine_ls_R_factor_all 0.031
loop_
_symmetry_equiv_pos_site_id
_symmetry_equiv_pos_as_xyz
1 '-x+y, -x, -z'
2 '-y, x-y, -z'
3 'x, y, -z'
4 '-x+y, -x, z'
5 '-y, x-y, z'
6 'x, y, z'
loop_
_atom_type_symbol
_atom_type_oxidation_number
Na1+ 1
Li1+ 1
C4+ 4
O2- -2
loop_
_atom_site_label
_atom_site_type_symbol
_atom_site_symmetry_multiplicity
_atom_site_Wyckoff_symbol
_atom_site_fract_x
_atom_site_fract_y
_atom_site_fract_z
_atom_site_B_iso_or_equiv
_atom_site_occupancy
_atom_site_attached_hydrogens
Na1 Na1+ 3 k 0.348 0.321 0.5 0.123(1) 1. 0
Li1 Li1+ 3 j 0.584 0.577 0 0.123(1) 1. 0
C1 C4+ 1 a 0 0 0 0.120(1) 1. 0
C2 C4+ 1 d 0.3333 0.6667 0.5 0.120(1) 1. 0
C3 C4+ 1 e 0.6667 0.3333 0 0.120(1) 1. 0
O1 O2- 3 j 0.823 0.883 0 0.120(1) 1. 0
O2 O2- 3 k 0.506 0.707 0.5 0.120(1) 1. 0
O3 O2- 3 j 0.487 0.262 0 0.120(1) 0.5 0
O4 O2- 3 j 0.561 0.407 0 0.120(1) 0.5 0
#End of TTdata_89652-ICSD