
#(C) 2019 by FIZ Karlsruhe - Leibniz Institute for Information Infrastructure.  All rights reserved.
data_89844-ICSD
_database_code_ICSD 89844
_audit_creation_date 2002-04-01
_chemical_name_systematic
'Dodecasodium tecto-dodecaalumododecasilicate - xenon (1/7)'
_chemical_formula_structural '(Na12 (Al12 Si12 O48)) Xe7'
_chemical_formula_sum 'Al12 Na12 O48 Si12 Xe7'
_chemical_name_structure_type Zeolite-A-frame
_chemical_name_mineral 'Zeolite A (Xe encapsulate)'
_exptl_crystal_density_diffrn 2.37
_cell_measurement_temperature 294.
_publ_section_title 'Crystal structure of xenon encapsulate within Na-A zeolite'
loop_
_citation_id
_citation_journal_full
_citation_year
_citation_journal_volume
_citation_page_first
_citation_page_last
_citation_journal_id_ASTM
primary 'Bulletin of the Korean Chemical Society' 2000 21 75 80 BKCSDE
loop_
_publ_author_name
'Lim, W.T.'
'Park, M.'
'Heo, N.-H.'
_cell_length_a 12.249(1)
_cell_length_b 12.249(1)
_cell_length_c 12.249(1)
_cell_angle_alpha 90.
_cell_angle_beta 90.
_cell_angle_gamma 90.
_cell_volume 1837.82
_cell_formula_units_Z 1
_symmetry_space_group_name_H-M 'P m -3 m'
_symmetry_Int_Tables_number 221
_refine_ls_R_factor_all 0.065
loop_
_symmetry_equiv_pos_site_id
_symmetry_equiv_pos_as_xyz
1 'z, y, -x'
2 'y, x, -z'
3 'x, z, -y'
4 'z, x, -y'
5 'y, z, -x'
6 'x, y, -z'
7 'z, -y, x'
8 'y, -x, z'
9 'x, -z, y'
10 'z, -x, y'
11 'y, -z, x'
12 'x, -y, z'
13 '-z, y, x'
14 '-y, x, z'
15 '-x, z, y'
16 '-z, x, y'
17 '-y, z, x'
18 '-x, y, z'
19 '-z, -y, -x'
20 '-y, -x, -z'
21 '-x, -z, -y'
22 '-z, -x, -y'
23 '-y, -z, -x'
24 '-x, -y, -z'
25 '-z, -y, x'
26 '-y, -x, z'
27 '-x, -z, y'
28 '-z, -x, y'
29 '-y, -z, x'
30 '-x, -y, z'
31 '-z, y, -x'
32 '-y, x, -z'
33 '-x, z, -y'
34 '-z, x, -y'
35 '-y, z, -x'
36 '-x, y, -z'
37 'z, -y, -x'
38 'y, -x, -z'
39 'x, -z, -y'
40 'z, -x, -y'
41 'y, -z, -x'
42 'x, -y, -z'
43 'z, y, x'
44 'y, x, z'
45 'x, z, y'
46 'z, x, y'
47 'y, z, x'
48 'x, y, z'
loop_
_atom_type_symbol
_atom_type_oxidation_number
Si4+ 4
Al3+ 3
O2- -2
Na1+ 1
Xe0+ 0
Na1+ 1
loop_
_atom_site_label
_atom_site_type_symbol
_atom_site_symmetry_multiplicity
_atom_site_Wyckoff_symbol
_atom_site_fract_x
_atom_site_fract_y
_atom_site_fract_z
_atom_site_B_iso_or_equiv
_atom_site_occupancy
_atom_site_attached_hydrogens
Si1 Si4+ 24 k 0 0.1834(3) 0.3714(3) . 0.5 0
Al1 Al3+ 24 k 0 0.1834(3) 0.3714(3) . 0.5 0
O1 O2- 12 h 0 0.2288(10) 0.5 . 1. 0
O2 O2- 12 i 0 0.2913(7) 0.2913(7) . 1. 0
O3 O2- 24 m 0.1131(6) 0.1131(6) 0.3417(7) . 1. 0
Na1 Na1+ 12 i 0 0.4345(26) 0.4345(26) . 0.25 0
Na2 Na1+ 8 g 0.2042(6) 0.2042(6) 0.2042(6) . 1. 0
Xe1 Xe0+ 1 a 0 0 0 0.021(1) 1. 0
Xe2 Xe0+ 48 n 0.2439(5) 0.3765(33) 0.4559(37) 0.019(2) 0.0417 0
Xe3 Xe0+ 24 m 0.2981(22) 0.3709(16) 0.3709(16) 0.015(1) 0.0833 0
Xe4 Xe0+ 24 m 0.3071(11) 0.3071(11) 0.4625(11) 0.011(1) 0.0833 0
Na3 Na1+ 12 j 0.213(10) 0.213(10) 0.5 0.010(5) 0.0833 0
loop_
_atom_site_aniso_label
_atom_site_aniso_type_symbol
_atom_site_aniso_U_11
_atom_site_aniso_U_22
_atom_site_aniso_U_33
_atom_site_aniso_U_12
_atom_site_aniso_U_13
_atom_site_aniso_U_23
Si1 Si4+ 0.024(2) 0.015(1) 0.006(1) 0 0 0.003(2)
Al1 Al3+ 0.024(2) 0.015(1) 0.006(1) 0 0 0.003(2)
O1 O2- 0.041(8) 0.020(8) 0.024(7) 0 0 0
O2 O2- 0.054(9) 0.019(5) 0.019(5) 0 0 0.003(7)
O3 O2- 0.028(3) 0.028(3) 0.030(5) 0.016(5) 0.001(4) 0.001(4)
Na1 Na1+ 0.178(54) 0.060(18) 0.060(18) 0 0 0.005(25)
Na2 Na1+ 0.046(3) 0.046(3) 0.046(3) 0.020(4) 0.020(4) 0.020(4)
#End of TTdata_89844-ICSD