
#(C) 2019 by FIZ Karlsruhe - Leibniz Institute for Information Infrastructure.  All rights reserved.
data_89990-ICSD
_database_code_ICSD 89990
_audit_creation_date 2002-04-01
_chemical_name_systematic 'Sodium bismuth vanadium oxide (0.89/3.11/2/9.79)'
_chemical_formula_structural 'Na0.886 (Bi3.114 V2 O9.792)'
_chemical_formula_sum 'Bi3.114 Na0.886 O9.792 V2'
_chemical_name_structure_type NaBi3V2O10
_exptl_crystal_density_diffrn 6.53
_publ_section_title

;
A novel oxide ion conductor in a doped Bi2 O3 - V2 O5 system: ab initio
structure of a new polymorph of Na Bi3 V2 O10 via powder X-ray diffraction
;
loop_
_citation_id
_citation_journal_full
_citation_year
_citation_journal_volume
_citation_page_first
_citation_page_last
_citation_journal_id_ASTM
primary 'Chemistry of Materials' 2000 12 3658 3661 CMATEX
loop_
_publ_author_name
'Porob, D.G.'
'Guru Row, T.N.'
_cell_length_a 7.1964(4)
_cell_length_b 7.0367(3)
_cell_length_c 5.5139(2)
_cell_angle_alpha 84.440(3)
_cell_angle_beta 113.462(2)
_cell_angle_gamma 112.319(2)
_cell_volume 236.46
_cell_formula_units_Z 1
_symmetry_space_group_name_H-M 'P -1'
_symmetry_Int_Tables_number 2
_refine_ls_R_factor_all 0.087
loop_
_symmetry_equiv_pos_site_id
_symmetry_equiv_pos_as_xyz
1 '-x, -y, -z'
2 'x, y, z'
loop_
_atom_type_symbol
_atom_type_oxidation_number
Bi3+ 3
Na1+ 1
Bi3+ 3
V4+ 4.68
O2- -2
loop_
_atom_site_label
_atom_site_type_symbol
_atom_site_symmetry_multiplicity
_atom_site_Wyckoff_symbol
_atom_site_fract_x
_atom_site_fract_y
_atom_site_fract_z
_atom_site_B_iso_or_equiv
_atom_site_occupancy
_atom_site_attached_hydrogens
Bi1 Bi3+ 2 i 0.2930(5) 0.1208(5) 0.6098(5) 0.0322(8) 0.557(4) 0
Na1 Na1+ 2 i 0.2930(5) 0.1208(5) 0.6098(5) 0.0322(8) 0.443(4) 0
Bi2 Bi3+ 2 i 0.0264(4) 0.2568(4) -.0552(5) 0.0322(8) 1. 0
V1 V4+ 2 i 0.6444(13) 0.3474(13) 0.2986(16) 0.0290(33) 1. 0
O1 O2- 2 i 0.0458(47) -.0150(47) 0.8086(53) 0.0328(49) 1. 0
O2 O2- 2 i 0.2175(39) 0.4004(39) 0.6284(45) 0.0328(49) 1. 0
O3 O2- 2 i 0.6762(48) 0.2549(45) 0.0776(61) 0.0328(49) 0.896(32) 0
O4 O2- 2 i 0.2666(40) 0.8302(39) 0.4445(55) 0.0328(49) 1. 0
O5 O2- 2 i 0.3645(44) 0.2881(46) 0.2141(56) 0.0328(49) 1. 0
#End of TTdata_89990-ICSD