
#(C) 2019 by FIZ Karlsruhe - Leibniz Institute for Information Infrastructure.  All rights reserved.
data_90283-ICSD
_database_code_ICSD 90283
_audit_creation_date 2002-04-01
_audit_update_record 2006-04-01
_chemical_name_systematic 'Sodium magnesium fluoride'
_chemical_formula_structural 'Na Mg F3'
_chemical_formula_sum 'F3 Mg1 Na1'
_chemical_name_structure_type Perovskite-GdFeO3
_chemical_name_mineral Neighborite
_exptl_crystal_density_diffrn 3.07
_publ_section_title

;
Investigation of the perovskite related structures of Na Mg H3, Na Mg F3 and
Na3 Al H6
;
loop_
_citation_id
_citation_journal_full
_citation_year
_citation_journal_volume
_citation_page_first
_citation_page_last
_citation_journal_id_ASTM
primary 'Journal of Alloys and Compounds' 2000 299 101 106 JALCEU
loop_
_publ_author_name
'Roennebro, E.'
'Noreus, D.'
'Kadir, K.'
'Reiser, A.'
'Bogdanovic, B.'
_cell_length_a 5.4897(3)
_cell_length_b 7.6682(5)
_cell_length_c 5.3617(5)
_cell_angle_alpha 90.
_cell_angle_beta 90.
_cell_angle_gamma 90.
_cell_volume 225.71
_cell_formula_units_Z 4
_symmetry_space_group_name_H-M 'P n m a'
_symmetry_Int_Tables_number 62
_refine_ls_R_factor_all 0.036
loop_
_symmetry_equiv_pos_site_id
_symmetry_equiv_pos_as_xyz
1 'x+1/2, y, -z+1/2'
2 'x, -y+1/2, z'
3 '-x+1/2, y+1/2, z+1/2'
4 '-x, -y, -z'
5 '-x+1/2, -y, z+1/2'
6 '-x, y+1/2, -z'
7 'x+1/2, -y+1/2, -z+1/2'
8 'x, y, z'
loop_
_atom_type_symbol
_atom_type_oxidation_number
Mg2+ 2
Na1+ 1
F1- -1
loop_
_atom_site_label
_atom_site_type_symbol
_atom_site_symmetry_multiplicity
_atom_site_Wyckoff_symbol
_atom_site_fract_x
_atom_site_fract_y
_atom_site_fract_z
_atom_site_B_iso_or_equiv
_atom_site_occupancy
_atom_site_attached_hydrogens
Mg1 Mg2+ 4 b 0 0 0.5 . 1. 0
Na1 Na1+ 4 c 0.0446(2) 0.25 -.0098(2) . 1. 0
F1 F1- 4 c 0.0877(3) 0.25 0.4730(3) . 1. 0
F2 F1- 8 d 0.2949(2) 0.0459(1) 0.7025(2) . 1. 0
loop_
_atom_site_aniso_label
_atom_site_aniso_type_symbol
_atom_site_aniso_U_11
_atom_site_aniso_U_22
_atom_site_aniso_U_33
_atom_site_aniso_U_12
_atom_site_aniso_U_13
_atom_site_aniso_U_23
Mg1 Mg2+ 0.0072(2) 0.0068(2) 0.0058(2) -0.0003(3) 0 0
Na1 Na1+ 0.0159(5) 0.0159(5) 0.0189(6) -0.0035(5) 0.006(3) -0.007(2)
F1 F1- 0.0138(6) 0.0152(6) 0.0060(4) 0.0001(5) 0 0
F2 F1- 0.0110(3) 0.0103(3) 0.0145(4) -0.0038(3) 0.0019(3) -0.0019(3)
#End of TTdata_90283-ICSD