
#(C) 2019 by FIZ Karlsruhe - Leibniz Institute for Information Infrastructure.  All rights reserved.
data_90484-ICSD
_database_code_ICSD 90484
_audit_creation_date 2002-04-01
_chemical_name_systematic 'Sodium zinc tris(catena-phosphate(V))'
_chemical_formula_structural 'Na Zn (P O3)3'
_chemical_formula_sum 'Na1 O9 P3 Zn1'
_chemical_name_structure_type NaMg(PO3)3
_exptl_crystal_density_diffrn 2.98
_publ_section_title

;
Cation distribution in cubic Na M (P O3)3 (M = Mg or Zn) using X-ray powder
diffraction and solid state NMR
;
loop_
_citation_id
_citation_journal_full
_citation_year
_citation_journal_volume
_citation_page_first
_citation_page_last
_citation_journal_id_ASTM
primary 'Dalton (2000) - An International Journal of Inorganic Chemistry' 2000
2000 155 160 DALTFG
loop_
_publ_author_name
'Abrahams, I.'
'Ahmed, A.'
'Groombridge, C.J.'
'Hawkes, G.E.'
'Nunes, T.G.'
_cell_length_a 14.2581(4)
_cell_length_b 14.2581(4)
_cell_length_c 14.2581(4)
_cell_angle_alpha 90.
_cell_angle_beta 90.
_cell_angle_gamma 90.
_cell_volume 2898.58
_cell_formula_units_Z 16
_symmetry_space_group_name_H-M 'P a -3'
_symmetry_Int_Tables_number 205
_refine_ls_R_factor_all 0.076
loop_
_symmetry_equiv_pos_site_id
_symmetry_equiv_pos_as_xyz
1 '-z+1/2, x+1/2, y'
2 'z+1/2, x, -y+1/2'
3 'z, -x+1/2, y+1/2'
4 '-z, -x, -y'
5 'y, -z+1/2, x+1/2'
6 '-y+1/2, z+1/2, x'
7 'y+1/2, z, -x+1/2'
8 '-y, -z, -x'
9 'x+1/2, y, -z+1/2'
10 'x, -y+1/2, z+1/2'
11 '-x+1/2, y+1/2, z'
12 '-x, -y, -z'
13 'z+1/2, -x+1/2, -y'
14 '-z+1/2, -x, y+1/2'
15 '-z, x+1/2, -y+1/2'
16 'z, x, y'
17 '-y, z+1/2, -x+1/2'
18 'y+1/2, -z+1/2, -x'
19 '-y+1/2, -z, x+1/2'
20 'y, z, x'
21 '-x+1/2, -y, z+1/2'
22 '-x, y+1/2, -z+1/2'
23 'x+1/2, -y+1/2, -z'
24 'x, y, z'
loop_
_atom_type_symbol
_atom_type_oxidation_number
Na1+ 1
Zn2+ 2
P5+ 5
O2- -2
loop_
_atom_site_label
_atom_site_type_symbol
_atom_site_symmetry_multiplicity
_atom_site_Wyckoff_symbol
_atom_site_fract_x
_atom_site_fract_y
_atom_site_fract_z
_atom_site_B_iso_or_equiv
_atom_site_occupancy
_atom_site_attached_hydrogens
Na1 Na1+ 4 b 0.5 0.5 0.5 0.035(3) 1. 0
Na2 Na1+ 4 a 0 0 0 0.035(3) 1. 0
Na3 Na1+ 8 c 0.2486(7) 0.2486(7) 0.2486(7) 0.035(3) 1. 0
Zn1 Zn2+ 8 c 0.1300(5) 0.1300(5) 0.1300(5) 0.011(2) 1. 0
Zn2 Zn2+ 8 c 0.3807(5) 0.3807(5) 0.3807(5) 0.051(3) 1. 0
P1 P5+ 24 d 0.0236(6) 0.2410(5) 0.4814(6) 0.028(3) 1. 0
P2 P5+ 24 d 0.2279(46) 0.2180(5) 0.4952(6) 0.046(4) 1. 0
O1 O2- 24 d 0.4750(7) 0.2728(10) 0.1146(8) 0.027(2) 1. 0
O2 O2- 24 d 0.0222(13) 0.1600(6) 0.0127(13) 0.027(2) 1. 0
O3 O2- 24 d 0.4803(12) 0.3377(9) 0.4665(11) 0.027(2) 1. 0
O4 O2- 24 d 0.2248(14) 0.2221(13) 0.0799(8) 0.027(2) 1. 0
O5 O2- 24 d 0.2934(11) 0.2533(11) 0.4228(9) 0.027(2) 1. 0
O6 O2- 24 d 0.1239(7) 0.1955(13) 0.4594(14) 0.027(2) 1. 0
#End of TTdata_90484-ICSD