
#(C) 2019 by FIZ Karlsruhe - Leibniz Institute for Information Infrastructure.  All rights reserved.
data_9061-ICSD
_database_code_ICSD 9061
_audit_creation_date 1980-01-01
_audit_update_record 2012-08-01
_chemical_name_systematic 'Sodium dihydrogendiphosphate hexahydrate'
_chemical_formula_structural 'Na2 (H2 P2 O7) (H2 O)6'
_chemical_formula_sum 'H14 Na2 O13 P2'
_exptl_crystal_density_diffrn 1.89
_publ_section_title

;
The Crystal Structure of Disodium Dihydrogen Hypophosphate Hexahydrate Na2 (H2
P2 O6) (H2 O)6 and Disodium Dihydrogen Pyrophosphate Hexahydrate Na2 (H2 P2
O7) (H2 O)6
;
loop_
_citation_id
_citation_journal_full
_citation_year
_citation_journal_volume
_citation_page_first
_citation_page_last
_citation_journal_id_ASTM
primary

;
Acta Crystallographica, Section B: Structural Crystallography and Crystal
Chemistry
; 1971 27 291 302 ACBCAR
loop_
_publ_author_name
'Collin, R.L.'
'Willis, M.'
_cell_length_a 14.009(6)
_cell_length_b 6.959(4)
_cell_length_c 13.455(8)
_cell_angle_alpha 90.
_cell_angle_beta 117.69(4)
_cell_angle_gamma 90.
_cell_volume 1161.49
_cell_formula_units_Z 4
_symmetry_space_group_name_H-M 'C 1 2/c 1'
_symmetry_Int_Tables_number 15
_refine_ls_R_factor_all 0.04
loop_
_symmetry_equiv_pos_site_id
_symmetry_equiv_pos_as_xyz
1 'x, -y, z+1/2'
2 '-x, -y, -z'
3 '-x, y, -z+1/2'
4 'x, y, z'
5 'x+1/2, -y+1/2, z+1/2'
6 '-x+1/2, -y+1/2, -z'
7 '-x+1/2, y+1/2, -z+1/2'
8 'x+1/2, y+1/2, z'
loop_
_atom_type_symbol
_atom_type_oxidation_number
P5+ 5
O2- -2
Na1+ 1
H1+ 1
loop_
_atom_site_label
_atom_site_type_symbol
_atom_site_symmetry_multiplicity
_atom_site_Wyckoff_symbol
_atom_site_fract_x
_atom_site_fract_y
_atom_site_fract_z
_atom_site_B_iso_or_equiv
_atom_site_occupancy
_atom_site_attached_hydrogens
P1 P5+ 8 f 0.00216(4) 0.13738(8) 0.14090(5) . 1. 0
O1 O2- 8 f -.10976(14) 0.09231(28) 0.05336(15) . 1. 0
O2 O2- 8 f 0.06160(14) 0.28641(28) 0.11190(15) . 1. 0
O3 O2- 8 f 0.07157(14) -.04976(27) 0.18346(16) . 1. 0
O4 O2- 4 e 0 0.22327(37) 0.25 . 1. 0
O5 O2- 8 f 0.27511(17) 0.11760(33) 0.13621(19) . 1. 0
O6 O2- 8 f 0.22922(16) 0.65086(30) 0.12043(17) . 1. 0
O7 O2- 8 f -.03882(17) 0.64174(30) 0.09694(17) . 1. 0
Na1 Na1+ 8 f 0.23735(8) 0.38162(15) 0.22957(9) . 1. 0
H1 H1+ 8 f 0.2255(46) 0.0810(77) 0.0728(48) 2.5 1. 0
H2 H1+ 8 f 0.2777(46) 0.6233(73) 0.1052(46) 2.5 1. 0
H3 H1+ 8 f -.0078(43) 0.5692(88) 0.1079(47) 2.5 1. 0
H4 H1+ 8 f 0.3317(46) 0.1208(72) 0.1301(48) 2.5 1. 0
H5 H1+ 8 f -.0560(44) 0.6669(75) 0.0216(51) 2.5 1. 0
H6 H1+ 8 f 0.1851(44) 0.7222(84) 0.0715(49) 2.5 1. 0
H7 H1+ 8 f 0.0308(44) -.1490(79) 0.1643(45) 2.5 1. 0
loop_
_atom_site_aniso_label
_atom_site_aniso_type_symbol
_atom_site_aniso_U_11
_atom_site_aniso_U_22
_atom_site_aniso_U_33
_atom_site_aniso_U_12
_atom_site_aniso_U_13
_atom_site_aniso_U_23
P1 P5+ 0.0112(3) 0.0130(3) 0.0129(3) 0.0004(2) 0.0008(2) 0.0100(2)
O1 O2- 0.0119(7) 0.0249(9) 0.0177(8) -.0008(6) 0.0016(6) 0.0016(6)
O2 O2- 0.0188(8) 0.0206(8) 0.0209(9) -.0048(6) 0.0048(6) 0.0180(6)
O3 O2- 0.0158(8) 0.0157(8) 0.0260(9) 0.0078(6) 0.0024(6) 0.0098(6)
O4 O2- 0.0350(14) 0.0156(11) 0.0175(11) 0 0 0.0314(10)
O5 O2- 0.0249(10) 0.0320(11) 0.0308(10) -.0072(8) -.0122(8) 0.0312(8)
O6 O2- 0.0226(9) 0.0244(9) 0.0238(9) 0.0104(8) 0.0132(8) 0.0206(8)
O7 O2- 0.030(1) 0.0174(9) 0.0265(9) 0.0048(8) -.0014(18) 0.0296(8)
Na1 Na1+ 0.0190(5) 0.0193(5) 0.0254(5) -.0044(4) 0.0024(4) 0.0160(4)
#End of TTdata_9061-ICSD