
#(C) 2019 by FIZ Karlsruhe - Leibniz Institute for Information Infrastructure.  All rights reserved.
data_90612-ICSD
_database_code_ICSD 90612
_audit_creation_date 2002-04-01
_audit_update_record 2012-02-01
_chemical_name_systematic
'Sodium triiron(III) bis(phosphate(V)) tetrahydroxide dihydrate'
_chemical_formula_structural 'Na Fe3 (P O4)2 (O H)4 (H2 O)2'
_chemical_formula_sum 'H8 Fe3 Na1 O14 P2'
_chemical_name_structure_type NaFe3P2O8(OH)4(H2O)2
_chemical_name_mineral Cyrilovite
_exptl_crystal_density_diffrn 3.1
_publ_section_title

;
Refinement of the crystal structure of cyrilovite from Cyrilov, Western
Moravia, Czech Republic
;
loop_
_citation_id
_citation_journal_full
_citation_year
_citation_journal_volume
_citation_page_first
_citation_page_last
_citation_journal_id_ASTM
primary 'International Journal of Inorganic Materials' 2000 45 95 100 IJIMCR
loop_
_publ_author_name
'Cooper, M.A.'
'Hawthorne, F.C.'
'Cerny, P.'
_cell_length_a 7.3255(4)
_cell_length_b 7.3255(4)
_cell_length_c 19.3278(18)
_cell_angle_alpha 90.
_cell_angle_beta 90.
_cell_angle_gamma 90.
_cell_volume 1037.19
_cell_formula_units_Z 4
_symmetry_space_group_name_H-M 'P 41 21 2'
_symmetry_Int_Tables_number 92
_refine_ls_R_factor_all 0.014
loop_
_symmetry_equiv_pos_site_id
_symmetry_equiv_pos_as_xyz
1 'x+1/2, -y+1/2, -z+3/4'
2 '-x+1/2, y+1/2, -z+1/4'
3 '-y, -x, -z+1/2'
4 'y, x, -z'
5 'y+1/2, -x+1/2, z+3/4'
6 '-y+1/2, x+1/2, z+1/4'
7 '-x, -y, z+1/2'
8 'x, y, z'
loop_
_atom_type_symbol
_atom_type_oxidation_number
P5+ 5
Fe3+ 3
Na1+ 1
O2- -2
H1+ 1
loop_
_atom_site_label
_atom_site_type_symbol
_atom_site_symmetry_multiplicity
_atom_site_Wyckoff_symbol
_atom_site_fract_x
_atom_site_fract_y
_atom_site_fract_z
_atom_site_B_iso_or_equiv
_atom_site_occupancy
_atom_site_attached_hydrogens
P1 P5+ 8 b 0.14038(5) 0.36596(5) 0.35039(2) . 1. 0
Fe1 Fe3+ 8 b 0.39492(3) 0.10846(3) 0.25769(1) . 1. 0
Fe2 Fe3+ 4 a 0.10351(3) 0.10351(3) 0 . 1. 0
Na1 Na1+ 4 a 0.3743(1) 0.3743(1) 0.5 . 1. 0
O1 O2- 8 b -.0338(2) 0.4281(2) 0.31393(6) . 1. 0
O2 O2- 8 b 0.2958(2) 0.5056(2) 0.33954(6) . 1. 0
O3 O2- 8 b 0.1967(2) 0.1809(2) 0.32056(6) . 1. 0
O4 O2- 8 b 0.1056(2) 0.3471(2) 0.42845(5) . 1. 0
O5 O2- 8 b 0.1384(2) 0.3533(2) 0.95693(5) . 1. 0
O6 O2- 8 b 0.1779(2) 0.0272(2) 0.18970(7) . 1. 0
O7 O2- 8 b 0.4100(2) 0.3503(2) 0.21191(6) . 1. 0
H1 H1+ 8 b 0.064(3) 0.355(4) -.085(1) 0.05 1. 0
H2 H1+ 8 b 0.113(4) 0.106(3) 0.157(1) 0.05 1. 0
H3 H1+ 8 b 0.156(4) 0.898(1) 0.179(2) 0.05 1. 0
H4 H1+ 8 b 0.516(3) 0.323(4) 0.183(1) 0.05 1. 0
loop_
_atom_site_aniso_label
_atom_site_aniso_type_symbol
_atom_site_aniso_U_11
_atom_site_aniso_U_22
_atom_site_aniso_U_33
_atom_site_aniso_U_12
_atom_site_aniso_U_13
_atom_site_aniso_U_23
P1 P5+ 0.0072(2) 0.0081(2) 0.0065(1) 0.0003(1) 0.0006(1) 0.0004(1)
Fe1 Fe3+ 0.0091(1) 0.0071(1) 0.0082(1) 0.0005(1) 0.0005(1) -0.0003(1)
Fe2 Fe3+ 0.0074(1) 0.0074(1) 0.0091(1) 0.0001(1) 0.0006(1) -0.0006(1)
Na1 Na1+ 0.0197(3) 0.0197(3) 0.0200(5) 0.0016(4) -0.0022(3) 0.0022(3)
O1 O2- 0.0104(5) 0.0218(6) 0.0138(5) 0.0014(4) -0.0022(4) 0.0088(4)
O2 O2- 0.0125(5) 0.0124(5) 0.0096(5) -0.0042(4) 0.0012(4) -0.0003(4)
O3 O2- 0.0158(6) 0.0104(5) 0.0178(5) -0.0009(4) 0.0067(4) -0.0042(4)
O4 O2- 0.0116(5) 0.0178(5) 0.0070(4) 0.0010(4) 0.0015(4) 0.0017(4)
O5 O2- 0.0151(5) 0.0085(5) 0.0105(4) 0.0001(4) -0.0015(4) -0.0005(4)
O6 O2- 0.0227(6) 0.0149(6) 0.0179(5) -0.0032(5) -0.0103(5) 0.0020(5)
O7 O2- 0.0148(5) 0.0077(5) 0.0124(5) 0.0015(4) 0.0029(4) 0.0008(4)
#End of TTdata_90612-ICSD