
#(C) 2019 by FIZ Karlsruhe - Leibniz Institute for Information Infrastructure.  All rights reserved.
data_90683-ICSD
_database_code_ICSD 90683
_audit_creation_date 2002-04-01
_audit_update_record 2013-08-01
_chemical_name_systematic 'Sodium pentadeuterium bis(phosphate(V))'
_chemical_formula_structural '(Na D2 P O4) (D3 P O4)'
_chemical_formula_sum 'D5 Na1 O8 P2'
_chemical_name_structure_type NaH5(PO4)2
_exptl_crystal_density_diffrn 2.14
_cell_measurement_temperature 240.
_publ_section_title

;
Structure, phase transition and vibrational spectra of the Na H5 (P O4)2 and
Na D5 (P O4)2 crystals
;
loop_
_citation_id
_citation_journal_full
_citation_year
_citation_journal_volume
_citation_page_first
_citation_page_last
_citation_journal_id_ASTM
primary 'Journal of Molecular Structure' 2000 516 185 202 JMOSB4
loop_
_publ_author_name
'Baran, J.'
'Lis, T.'
'Drozd, M.'
'Ratajczak, H.'
_cell_length_a 8.495(3)
_cell_length_b 7.854(3)
_cell_length_c 10.352(3)
_cell_angle_alpha 90.
_cell_angle_beta 90.67(3)
_cell_angle_gamma 90.
_cell_volume 690.64
_cell_formula_units_Z 4
_symmetry_space_group_name_H-M 'P 1 21/c 1'
_symmetry_Int_Tables_number 14
_refine_ls_R_factor_all 0.028
loop_
_symmetry_equiv_pos_site_id
_symmetry_equiv_pos_as_xyz
1 'x, -y+1/2, z+1/2'
2 '-x, -y, -z'
3 '-x, y+1/2, -z+1/2'
4 'x, y, z'
loop_
_atom_type_symbol
_atom_type_oxidation_number
P5+ 5
Na1+ 1
O2- -2
D1+ 1
O2- -2
D1+ 1
O2- -2
D1+ 1
O2- -2
D1+ 1
O2- -2
D1+ 1
O2- -2
loop_
_atom_site_label
_atom_site_type_symbol
_atom_site_symmetry_multiplicity
_atom_site_Wyckoff_symbol
_atom_site_fract_x
_atom_site_fract_y
_atom_site_fract_z
_atom_site_B_iso_or_equiv
_atom_site_occupancy
_atom_site_attached_hydrogens
P1 P5+ 4 e 0.46175(4) 0.74157(4) 0.57049(3) 0.01245(7) 1. 0
P2 P5+ 4 e 0.91546(4) 0.50489(5) 0.69390(3) 0.01329(7) 1. 0
Na1 Na1+ 4 e 0.27787(7) 0.91322(8) 0.33615(6) 0.01856(13) 1. 0
O1 O2- 4 e 0.35120(13) 0.89646(14) 0.56024(10) 0.0182(2) 1. 0
D1 D1+ 4 e 0.323(3) 0.956(4) 0.630(3) 0.039(7) 1. 0
O2 O2- 4 e 0.49878(14) 0.71398(14) 0.42476(10) 0.0191(2) 1. 0
D2 D1+ 4 e 0.535(3) 0.613(4) 0.401(3) 0.042(7) 1. 0
O3 O2- 4 e 0.61361(13) 0.80406(14) 0.64235(11) 0.0197(2) 1. 0
D3 D1+ 4 e 0.664(3) 0.722(3) 0.681(2) 0.028(6) 1. 0
O4 O2- 4 e 0.39602(12) 0.58778(13) 0.63454(10) 0.01721(19) 1. 0
O5 O2- 4 e 0.03603(13) 0.45085(14) 0.80155(12) 0.0221(2) 1. 0
D4 D1+ 4 e 0.025(3) 0.346(4) 0.831(3) 0.046(8) 1. 0
O6 O2- 4 e 0.88572(14) 0.34254(15) 0.60914(11) 0.0221(2) 1. 0
D5 D1+ 4 e 0.927(3) 0.348(3) 0.545(3) 0.032(6) 1. 0
O7 O2- 4 e 0.76106(12) 0.55387(14) 0.75452(11) 0.0193(2) 1. 0
O8 O2- 4 e 0.98787(13) 0.64641(13) 0.61682(11) 0.0203(2) 1. 0
#End of TTdata_90683-ICSD