
#(C) 2019 by FIZ Karlsruhe - Leibniz Institute for Information Infrastructure.  All rights reserved.
data_90747-ICSD
_database_code_ICSD 90747
_audit_creation_date 2002-04-01
_chemical_name_systematic 'Sodium barium vanadium tetrasulfide'
_chemical_formula_structural 'Na Ba V S4'
_chemical_formula_sum 'Ba1 Na1 S4 V1'
_exptl_crystal_density_diffrn 3.25
_cell_measurement_temperature 163.
_publ_section_title

;
Crystal growth and physical characterisation of Na Ba V S4 obtained from
sodium polysulfide flux
;
loop_
_citation_id
_citation_journal_full
_citation_year
_citation_journal_volume
_citation_page_first
_citation_page_last
_citation_journal_id_ASTM
primary 'Journal of Physics and Chemistry of Solids' 2000 61 773 778 JPCSAW
loop_
_publ_author_name
'Figueroa, E.'
'Leman, J.T.'
'Evans, W.J.'
'Ziller, J.W.'
'Lawrence, J.M.'
'Thompson, J.D.'
_cell_length_a 6.4163(12)
_cell_length_b 9.4798(15)
_cell_length_c 11.667(2)
_cell_angle_alpha 90.
_cell_angle_beta 102.149(14)
_cell_angle_gamma 90.
_cell_volume 693.75
_cell_formula_units_Z 4
_symmetry_space_group_name_H-M 'P 1 21/n 1'
_symmetry_Int_Tables_number 14
_refine_ls_R_factor_all 0.026
loop_
_symmetry_equiv_pos_site_id
_symmetry_equiv_pos_as_xyz
1 '-x+1/2, y+1/2, -z+1/2'
2 '-x, -y, -z'
3 'x+1/2, -y+1/2, z+1/2'
4 'x, y, z'
loop_
_atom_type_symbol
_atom_type_oxidation_number
Na1+ 1
Ba2+ 2
V5+ 5
S2- -2
loop_
_atom_site_label
_atom_site_type_symbol
_atom_site_symmetry_multiplicity
_atom_site_Wyckoff_symbol
_atom_site_fract_x
_atom_site_fract_y
_atom_site_fract_z
_atom_site_B_iso_or_equiv
_atom_site_occupancy
_atom_site_attached_hydrogens
Na1 Na1+ 4 e 0.6995(9) 0.6506(6) 0.4994(5) 0.025(1) 0.5 0
Na2 Na1+ 4 e 0.7566(8) 0.6153(5) 0.5247(4) 0.022(1) 0.5 0
Ba1 Ba2+ 4 e 0.2221(1) 0.3850(1) 0.8441(1) . 1. 0
V1 V5+ 4 e 0.8041(1) 0.1192(1) 0.6846(1) . 1. 0
S1 S2- 4 e 0.0497(2) 0.0690(1) 0.8370(1) . 1. 0
S2 S2- 4 e -.0887(2) 0.2917(1) 0.5912(1) . 1. 0
S3 S2- 4 e 0.7463(2) 0.4349(1) 0.9232(1) . 1. 0
S4 S2- 4 e -.0121(2) 0.6716(1) 0.7668(1) . 1. 0
loop_
_atom_site_aniso_label
_atom_site_aniso_type_symbol
_atom_site_aniso_U_11
_atom_site_aniso_U_22
_atom_site_aniso_U_33
_atom_site_aniso_U_12
_atom_site_aniso_U_13
_atom_site_aniso_U_23
Ba1 Ba2+ 0.015(1) 0.015(1) 0.013(1) 0.000(1) 0.002(1) -.001(1)
V1 V5+ 0.014(1) 0.014(1) 0.012(1) 0.000(1) 0.002(1) -.001(1)
S1 S2- 0.018(1) 0.016(1) 0.014(1) 0.001(1) 0.001(1) 0.000(1)
S2 S2- 0.022(1) 0.018(1) 0.015(1) -.003(1) 0.003(1) 0.001(1)
S3 S2- 0.017(1) 0.014(1) 0.014(1) -.001(1) 0.001(1) 0.001(1)
S4 S2- 0.017(1) 0.019(1) 0.027(1) 0.001(1) 0.007(1) 0.006(1)
#End of TTdata_90747-ICSD