
#(C) 2019 by FIZ Karlsruhe - Leibniz Institute for Information Infrastructure.  All rights reserved.
data_90756-ICSD
_database_code_ICSD 90756
_audit_creation_date 2002-04-01
_chemical_name_systematic 'Sodium yttrium aluminium arsenate(V) (3/0.11/1.89/3)'
_chemical_formula_structural 'Na3 Y0.111 Al1.887 (As O4)3'
_chemical_formula_sum 'Al1.887 As3 Na3 O12 Y0.111'
_exptl_crystal_density_diffrn 3.85
_publ_section_title

;
Elaboration et etude radiocristallographique du trisodium yttrium-aluminium
triarsenic dodecaoxyde Na3 Y0.11 Al1.89 (As O4)3 R . Effet du dopage par Na2 O
sur la conductivite electrique
;
loop_
_citation_id
_citation_journal_full
_citation_year
_citation_journal_volume
_citation_page_first
_citation_page_last
_citation_journal_id_ASTM
primary 'Journal de la Societe Chimique de Tunisie' 2000 4 735 743 JSCTDP
loop_
_publ_author_name
'Belam, W.'
'Madani, A.'
'Driss, A.'
'Daoud, A.'
_cell_length_a 13.354(1)
_cell_length_b 13.354(1)
_cell_length_c 18.3350(30)
_cell_angle_alpha 90.
_cell_angle_beta 90.
_cell_angle_gamma 120.
_cell_volume 2831.62
_cell_formula_units_Z 12
_symmetry_space_group_name_H-M 'R -3 c H'
_symmetry_Int_Tables_number 167
_refine_ls_R_factor_all 0.038
loop_
_symmetry_equiv_pos_site_id
_symmetry_equiv_pos_as_xyz
1 'x-y, -y, -z+1/2'
2 '-x, -x+y, -z+1/2'
3 'y, x, -z+1/2'
4 'x-y, x, -z'
5 'y, -x+y, -z'
6 '-x, -y, -z'
7 '-x+y, y, z+1/2'
8 'x, x-y, z+1/2'
9 '-y, -x, z+1/2'
10 '-x+y, -x, z'
11 '-y, x-y, z'
12 'x, y, z'
13 'x-y+2/3, -y+1/3, -z+5/6'
14 '-x+2/3, -x+y+1/3, -z+5/6'
15 'y+2/3, x+1/3, -z+5/6'
16 'x-y+2/3, x+1/3, -z+1/3'
17 'y+2/3, -x+y+1/3, -z+1/3'
18 '-x+2/3, -y+1/3, -z+1/3'
19 '-x+y+2/3, y+1/3, z+5/6'
20 'x+2/3, x-y+1/3, z+5/6'
21 '-y+2/3, -x+1/3, z+5/6'
22 '-x+y+2/3, -x+1/3, z+1/3'
23 '-y+2/3, x-y+1/3, z+1/3'
24 'x+2/3, y+1/3, z+1/3'
25 'x-y+1/3, -y+2/3, -z+1/6'
26 '-x+1/3, -x+y+2/3, -z+1/6'
27 'y+1/3, x+2/3, -z+1/6'
28 'x-y+1/3, x+2/3, -z+2/3'
29 'y+1/3, -x+y+2/3, -z+2/3'
30 '-x+1/3, -y+2/3, -z+2/3'
31 '-x+y+1/3, y+2/3, z+1/6'
32 'x+1/3, x-y+2/3, z+1/6'
33 '-y+1/3, -x+2/3, z+1/6'
34 '-x+y+1/3, -x+2/3, z+2/3'
35 '-y+1/3, x-y+2/3, z+2/3'
36 'x+1/3, y+2/3, z+2/3'
loop_
_atom_type_symbol
_atom_type_oxidation_number
Y3+ 3
Al3+ 3
As5+ 5
Na1+ 1
O2- -2
loop_
_atom_site_label
_atom_site_type_symbol
_atom_site_symmetry_multiplicity
_atom_site_Wyckoff_symbol
_atom_site_fract_x
_atom_site_fract_y
_atom_site_fract_z
_atom_site_B_iso_or_equiv
_atom_site_occupancy
_atom_site_attached_hydrogens
Y1 Y3+ 6 b 0.6667 0.3333 0.3333 . 0.222(6) 0
Al1 Al3+ 6 b 0.6667 0.3333 0.8333 . 0.828(2) 0
Al2 Al3+ 18 e 0.7792(2) 0.7792(2) 0.25 . 0.982(1) 0
As1 As5+ 36 f 0.6552(2) 0.5141(1) 0.1817(1) . 1. 0
Na1 Na1+ 36 f 0.6602(5) 0.5538(6) 0.3828(6) . 1. 0
O1 O2- 36 f 0.6419(5) 0.4646(5) 0.2710(3) . 1. 0
O2 O2- 36 f 0.7193(4) 0.6582(5) 0.1818(3) . 1. 0
O3 O2- 36 f 0.5268(4) 0.4657(4) 0.1457(4) . 1. 0
O4 O2- 36 f 0.7380(4) 0.4702(4) 0.1402(3) . 1. 0
loop_
_atom_site_aniso_label
_atom_site_aniso_type_symbol
_atom_site_aniso_U_11
_atom_site_aniso_U_22
_atom_site_aniso_U_33
_atom_site_aniso_U_12
_atom_site_aniso_U_13
_atom_site_aniso_U_23
Y1 Y3+ 0.0340(3) 0.0340(3) 0.0240(3) 0.0170(1) 0 0
Al1 Al3+ 0.0030(2) 0.0030(2) 0.0010(3) 0.0014(1) 0 0
Al2 Al3+ 0.0063(2) 0.0063(2) 0.0034(3) 0.0033(2) 0.0002(5) -.0002(5)
As1 As5+ 0.0126(6) 0.0130(6) 0.0100(6) 0.0065(4) 0.0011(3) -.0018(3)
Na1 Na1+ 0.0870(4) 0.1290(5) 0.0500(3) 0.0820(4) 0.0020(3) 0.0110(3)
O1 O2- 0.0340(3) 0.0310(3) 0.0080(3) 0.0170(3) 0.0040(2) 0
O2 O2- 0.0180(3) 0.0160(3) 0.0210(3) 0.0070(2) 0.0020(2) -.0010(2)
O3 O2- 0.0130(3) 0.0160(3) 0.0220(3) 0.0080(2) -.0030(2) -.0040(2)
O4 O2- 0.0130(3) 0.0100(3) 0.0150(2) 0.0050(2) 0.0010(2) -.0010(2)
#End of TTdata_90756-ICSD