
#(C) 2019 by FIZ Karlsruhe - Leibniz Institute for Information Infrastructure.  All rights reserved.
data_90941-ICSD
_database_code_ICSD 90941
_audit_creation_date 2002-04-01
_chemical_name_systematic 'Trisodium indium bis(phosphate(V)) - alpha'
_chemical_formula_structural 'Na3 In (P O4)2'
_chemical_formula_sum 'In1 Na3 O8 P2'
_chemical_name_structure_type K3Nd(PO4)2
_exptl_crystal_density_diffrn 3.74
_cell_measurement_temperature 297.
_publ_section_title
'Structure of polymorphous modifications of double sodium and indium phosphate'
loop_
_citation_id
_citation_journal_full
_citation_year
_citation_journal_volume
_citation_page_first
_citation_page_last
_citation_journal_id_ASTM
primary 'Journal of Solid State Chemistry' 2000 149 99 106 JSSCBI
loop_
_publ_author_name
'Zhizhin, M.G.'
'Morozov, V.A.'
'Bobylev, A.P.'
'Popov, A.M.'
'Spiridonov, F.M.'
'Komissarova, L.N.'
'Lazoryak, B.I.'
_cell_length_a 8.6335(1)
_cell_length_b 5.4550(1)
_cell_length_c 7.0482(1)
_cell_angle_alpha 90.
_cell_angle_beta 90.295(1)
_cell_angle_gamma 90.
_cell_volume 331.94
_cell_formula_units_Z 2
_symmetry_space_group_name_H-M 'P 1 21/m 1'
_symmetry_Int_Tables_number 11
_refine_ls_R_factor_all 0.017
loop_
_symmetry_equiv_pos_site_id
_symmetry_equiv_pos_as_xyz
1 'x, -y+1/2, z'
2 '-x, -y, -z'
3 '-x, y+1/2, -z'
4 'x, y, z'
loop_
_atom_type_symbol
_atom_type_oxidation_number
In3+ 3
Na1+ 1
P5+ 5
O2- -2
loop_
_atom_site_label
_atom_site_type_symbol
_atom_site_symmetry_multiplicity
_atom_site_Wyckoff_symbol
_atom_site_fract_x
_atom_site_fract_y
_atom_site_fract_z
_atom_site_B_iso_or_equiv
_atom_site_occupancy
_atom_site_attached_hydrogens
In1 In3+ 2 e 0.25 0.25 0 0.39(2) 1. 0
Na1 Na1+ 2 e 0.251(3) 0.25 0.502(2) 1.40(8) 1. 0
Na2 Na1+ 2 e 0.559(2) 0.25 0.286(2) 1.29(6) 1. 0
Na3 Na1+ 2 e 0.939(2) 0.25 0.714(2) 1.29(6) 1. 0
P1 P5+ 2 e 0.596(1) 0.25 0.778(2) 0.8(2) 1. 0
P2 P5+ 2 e 0.903(1) 0.25 0.221(2) 0.8(2) 1. 0
O1 O2- 2 e 0.498(2) 0.25 0.963(2) 0.48(5) 1. 0
O2 O2- 2 e 0.509(2) 0.25 0.583(2) 0.48(5) 1. 0
O3 O2- 4 f 0.301(1) 0.506(2) 0.222(2) 0.48(5) 1. 0
O4 O2- 2 e 0.007(2) 0.25 0.051(2) 0.48(5) 1. 0
O5 O2- 4 f 0.209(1) 0.531(2) 0.785(2) 0.48(5) 1. 0
O6 O2- 2 e 0.006(2) 0.25 0.391(2) 0.48(5) 1. 0
#End of TTdata_90941-ICSD