
#(C) 2019 by FIZ Karlsruhe - Leibniz Institute for Information Infrastructure.  All rights reserved.
data_91255-ICSD
_database_code_ICSD 91255
_audit_creation_date 2002-10-01
_chemical_name_systematic 'Sodium strontium tantalate (0.7/0.3/1)'
_chemical_formula_structural '(Na0.7 Sr0.3) (Ta O3)'
_chemical_formula_sum 'Na0.7 O3 Sr0.3 Ta1'
_chemical_name_structure_type Perovskite-BaTiO3(tet)
_exptl_crystal_density_diffrn 7.34
_publ_section_title

;
An X-ray powder and electron diffraction study of reduced tantalates with the
perovskite structure, Na1-x Srx Ta O3, 0<x<4
;
loop_
_citation_id
_citation_journal_full
_citation_year
_citation_journal_volume
_citation_page_first
_citation_page_last
_citation_journal_id_ASTM
primary 'Journal of Solid State Chemistry' 2000 154 427 434 JSSCBI
loop_
_publ_author_name
'Istomin, S.Ya.'
'Svensson, G.'
'Hannerz, H.'
'Koehler, J.'
_cell_length_a 3.94756(5)
_cell_length_b 3.94756(5)
_cell_length_c 3.93993(7)
_cell_angle_alpha 90.
_cell_angle_beta 90.
_cell_angle_gamma 90.
_cell_volume 61.4
_cell_formula_units_Z 1
_symmetry_space_group_name_H-M 'P 4/m m m'
_symmetry_Int_Tables_number 123
_refine_ls_R_factor_all 0.026
loop_
_symmetry_equiv_pos_site_id
_symmetry_equiv_pos_as_xyz
1 'y, x, -z'
2 '-y, -x, -z'
3 '-y, x, -z'
4 'y, -x, -z'
5 '-x, y, -z'
6 'x, -y, -z'
7 'x, y, -z'
8 '-x, -y, -z'
9 '-y, -x, z'
10 'y, x, z'
11 'y, -x, z'
12 '-y, x, z'
13 'x, -y, z'
14 '-x, y, z'
15 '-x, -y, z'
16 'x, y, z'
loop_
_atom_type_symbol
_atom_type_oxidation_number
Na1+ 1
Sr2+ 2
Ta4+ 4.7
O2- -2
loop_
_atom_site_label
_atom_site_type_symbol
_atom_site_symmetry_multiplicity
_atom_site_Wyckoff_symbol
_atom_site_fract_x
_atom_site_fract_y
_atom_site_fract_z
_atom_site_B_iso_or_equiv
_atom_site_occupancy
_atom_site_attached_hydrogens
Na1 Na1+ 1 a 0 0 0 1.6(6) 0.7 0
Sr1 Sr2+ 1 a 0 0 0 1.6(6) 0.3 0
Ta1 Ta4+ 1 d 0.5 0.5 0.5 0.8(2) 1. 0
O1 O2- 1 c 0.5 0.5 0 2.(1) 1. 0
O2 O2- 2 e 0.5 0 0.5 2.(1) 1. 0
#End of TTdata_91255-ICSD