
#(C) 2019 by FIZ Karlsruhe - Leibniz Institute for Information Infrastructure.  All rights reserved.
data_91333-ICSD
_database_code_ICSD 91333
_audit_creation_date 2002-10-01
_chemical_name_systematic
'Potassium calcium sodium tantalum oxide (2.18/1.1/1.12/2.93/9.54)'
_chemical_formula_structural 'K2.18 Ca1.1 Na1.12 Ta2.93 O9.54'
_chemical_formula_sum 'Ca1.1 K2.18 Na1.12 O9.54 Ta2.93'
_chemical_name_structure_type Sr4Ti3O10
_exptl_crystal_density_diffrn 6.14
_publ_section_title

;
Synthesis, proton exchange, and topochemical dehydration of new
Ruddlesden-Popper tantalates and titanotantalates
;
loop_
_citation_id
_citation_journal_full
_citation_year
_citation_journal_volume
_citation_page_first
_citation_page_last
_citation_journal_id_ASTM
primary 'Journal of Solid State Chemistry' 2000 155 46 54 JSSCBI
loop_
_publ_author_name
'Schaak, R.E.'
'Mallouk, T.E.'
_cell_length_a 3.9185(1)
_cell_length_b 3.9185(1)
_cell_length_c 29.519(2)
_cell_angle_alpha 90.
_cell_angle_beta 90.
_cell_angle_gamma 90.
_cell_volume 453.25
_cell_formula_units_Z 2
_symmetry_space_group_name_H-M 'I 4/m m m'
_symmetry_Int_Tables_number 139
_refine_ls_R_factor_all 0.085
loop_
_symmetry_equiv_pos_site_id
_symmetry_equiv_pos_as_xyz
1 'y, x, -z'
2 '-y, -x, -z'
3 '-y, x, -z'
4 'y, -x, -z'
5 '-x, y, -z'
6 'x, -y, -z'
7 'x, y, -z'
8 '-x, -y, -z'
9 '-y, -x, z'
10 'y, x, z'
11 'y, -x, z'
12 '-y, x, z'
13 'x, -y, z'
14 '-x, y, z'
15 '-x, -y, z'
16 'x, y, z'
17 'y+1/2, x+1/2, -z+1/2'
18 '-y+1/2, -x+1/2, -z+1/2'
19 '-y+1/2, x+1/2, -z+1/2'
20 'y+1/2, -x+1/2, -z+1/2'
21 '-x+1/2, y+1/2, -z+1/2'
22 'x+1/2, -y+1/2, -z+1/2'
23 'x+1/2, y+1/2, -z+1/2'
24 '-x+1/2, -y+1/2, -z+1/2'
25 '-y+1/2, -x+1/2, z+1/2'
26 'y+1/2, x+1/2, z+1/2'
27 'y+1/2, -x+1/2, z+1/2'
28 '-y+1/2, x+1/2, z+1/2'
29 'x+1/2, -y+1/2, z+1/2'
30 '-x+1/2, y+1/2, z+1/2'
31 '-x+1/2, -y+1/2, z+1/2'
32 'x+1/2, y+1/2, z+1/2'
loop_
_atom_type_symbol
_atom_type_oxidation_number
K1+ 1
Ca2+ 2
Na1+ 1
Ta4+ 4.635
O2- -2
loop_
_atom_site_label
_atom_site_type_symbol
_atom_site_symmetry_multiplicity
_atom_site_Wyckoff_symbol
_atom_site_fract_x
_atom_site_fract_y
_atom_site_fract_z
_atom_site_B_iso_or_equiv
_atom_site_occupancy
_atom_site_attached_hydrogens
K1 K1+ 4 e 0 0 0.2904(4) 0.008(2) 1.09(2) 0
Ca1 Ca2+ 4 e 0 0 0.4229(4) 0.003(2) 0.55(1) 0
Na1 Na1+ 4 e 0 0 0.4229(4) 0.003(2) 0.56(3) 0
Ta1 Ta4+ 2 a 0 0 0 0.0065(10) 1.01(1) 0
Ta2 Ta4+ 4 e 0 0 0.1375(1) 0.0077(6) 0.96(1) 0
O1 O2- 4 c 0 0.5 0 0.009(8) 0.94(6) 0
O2 O2- 4 e 0 0 0.071(2) 0.030(9) 0.96(4) 0
O3 O2- 8 g 0 0.5 0.134(1) 0.029(7) 0.94(5) 0
O4 O2- 4 e 0 0 0.2001(9) 0.014(9) 0.99(6) 0
#End of TTdata_91333-ICSD