
#(C) 2019 by FIZ Karlsruhe - Leibniz Institute for Information Infrastructure.  All rights reserved.
data_91530-ICSD
_database_code_ICSD 91530
_audit_creation_date 2002-10-01
_audit_update_record 2009-02-01
_chemical_name_systematic 'Sodium selenium tecto-alumosilicate *'
_chemical_formula_structural 'Na7.4 Se46.1 (Al96 Si96 O384)'
_chemical_formula_sum 'Al96 Na7.4 O384 Se46.1 Si96'
_chemical_name_structure_type Faujasite-Fd3--frame
_chemical_name_mineral 'Zeolite X (Se-adsorbate)'
_exptl_crystal_density_diffrn 1.61
_publ_section_title
'Structure of selenium and tellurium clusters in cavities of NaX zeolite'
loop_
_citation_id
_citation_journal_full
_citation_year
_citation_journal_volume
_citation_page_first
_citation_page_last
_citation_journal_id_ASTM
primary Kristallografiya 2000 45 27 31 KRISAJ
loop_
_publ_author_name
'Smolin, Yu.I.'
'Shepelev, Yu.F.'
'Lapshin, A.E.'
'Vasil'eva, E.A. (Vasileva, E.A.)'
_cell_length_a 25.06(1)
_cell_length_b 25.06(1)
_cell_length_c 25.06(1)
_cell_angle_alpha 90.
_cell_angle_beta 90.
_cell_angle_gamma 90.
_cell_volume 15737.77
_cell_formula_units_Z 1
_symmetry_space_group_name_H-M 'F d -3 Z'
_symmetry_Int_Tables_number 203
_refine_ls_R_factor_all 0.051
loop_
_symmetry_equiv_pos_site_id
_symmetry_equiv_pos_as_xyz
1 '-z, x+3/4, y+3/4'
2 'z+3/4, x+3/4, -y'
3 'z+3/4, -x, y+3/4'
4 '-z, -x, -y'
5 'y+3/4, -z, x+3/4'
6 '-y, z+3/4, x+3/4'
7 'y+3/4, z+3/4, -x'
8 '-y, -z, -x'
9 'x+3/4, y+3/4, -z'
10 'x+3/4, -y, z+3/4'
11 '-x, y+3/4, z+3/4'
12 '-x, -y, -z'
13 'z, -x+1/4, -y+1/4'
14 '-z+1/4, -x+1/4, y'
15 '-z+1/4, x, -y+1/4'
16 'z, x, y'
17 '-y+1/4, z, -x+1/4'
18 'y, -z+1/4, -x+1/4'
19 '-y+1/4, -z+1/4, x'
20 'y, z, x'
21 '-x+1/4, -y+1/4, z'
22 '-x+1/4, y, -z+1/4'
23 'x, -y+1/4, -z+1/4'
24 'x, y, z'
25 '-z, x+1/4, y+1/4'
26 'z+3/4, x+1/4, -y+1/2'
27 'z+3/4, -x+1/2, y+1/4'
28 '-z, -x+1/2, -y+1/2'
29 'y+3/4, -z+1/2, x+1/4'
30 '-y, z+1/4, x+1/4'
31 'y+3/4, z+1/4, -x+1/2'
32 '-y, -z+1/2, -x+1/2'
33 'x+3/4, y+1/4, -z+1/2'
34 'x+3/4, -y+1/2, z+1/4'
35 '-x, y+1/4, z+1/4'
36 '-x, -y+1/2, -z+1/2'
37 'z, -x+3/4, -y+3/4'
38 '-z+1/4, -x+3/4, y+1/2'
39 '-z+1/4, x+1/2, -y+3/4'
40 'z, x+1/2, y+1/2'
41 '-y+1/4, z+1/2, -x+3/4'
42 'y, -z+3/4, -x+3/4'
43 '-y+1/4, -z+3/4, x+1/2'
44 'y, z+1/2, x+1/2'
45 '-x+1/4, -y+3/4, z+1/2'
46 '-x+1/4, y+1/2, -z+3/4'
47 'x, -y+3/4, -z+3/4'
48 'x, y+1/2, z+1/2'
49 '-z+1/2, x+3/4, y+1/4'
50 'z+1/4, x+3/4, -y+1/2'
51 'z+1/4, -x, y+1/4'
52 '-z+1/2, -x, -y+1/2'
53 'y+1/4, -z, x+1/4'
54 '-y+1/2, z+3/4, x+1/4'
55 'y+1/4, z+3/4, -x+1/2'
56 '-y+1/2, -z, -x+1/2'
57 'x+1/4, y+3/4, -z+1/2'
58 'x+1/4, -y, z+1/4'
59 '-x+1/2, y+3/4, z+1/4'
60 '-x+1/2, -y, -z+1/2'
61 'z+1/2, -x+1/4, -y+3/4'
62 '-z+3/4, -x+1/4, y+1/2'
63 '-z+3/4, x, -y+3/4'
64 'z+1/2, x, y+1/2'
65 '-y+3/4, z, -x+3/4'
66 'y+1/2, -z+1/4, -x+3/4'
67 '-y+3/4, -z+1/4, x+1/2'
68 'y+1/2, z, x+1/2'
69 '-x+3/4, -y+1/4, z+1/2'
70 '-x+3/4, y, -z+3/4'
71 'x+1/2, -y+1/4, -z+3/4'
72 'x+1/2, y, z+1/2'
73 '-z+1/2, x+1/4, y+3/4'
74 'z+1/4, x+1/4, -y'
75 'z+1/4, -x+1/2, y+3/4'
76 '-z+1/2, -x+1/2, -y'
77 'y+1/4, -z+1/2, x+3/4'
78 '-y+1/2, z+1/4, x+3/4'
79 'y+1/4, z+1/4, -x'
80 '-y+1/2, -z+1/2, -x'
81 'x+1/4, y+1/4, -z'
82 'x+1/4, -y+1/2, z+3/4'
83 '-x+1/2, y+1/4, z+3/4'
84 '-x+1/2, -y+1/2, -z'
85 'z+1/2, -x+3/4, -y+1/4'
86 '-z+3/4, -x+3/4, y'
87 '-z+3/4, x+1/2, -y+1/4'
88 'z+1/2, x+1/2, y'
89 '-y+3/4, z+1/2, -x+1/4'
90 'y+1/2, -z+3/4, -x+1/4'
91 '-y+3/4, -z+3/4, x'
92 'y+1/2, z+1/2, x'
93 '-x+3/4, -y+3/4, z'
94 '-x+3/4, y+1/2, -z+1/4'
95 'x+1/2, -y+3/4, -z+1/4'
96 'x+1/2, y+1/2, z'
loop_
_atom_type_symbol
_atom_type_oxidation_number
Si4+ 4
Al3+ 3
O2- -2
Se1+ 1.922
Na1+ 1
loop_
_atom_site_label
_atom_site_type_symbol
_atom_site_symmetry_multiplicity
_atom_site_Wyckoff_symbol
_atom_site_fract_x
_atom_site_fract_y
_atom_site_fract_z
_atom_site_B_iso_or_equiv
_atom_site_occupancy
_atom_site_attached_hydrogens
Si1 Si4+ 96 g 0.9470(2) 0.0350(2) 0.1248(2) 1.00(7) 1. 0
Al1 Al3+ 96 g 0.9460(2) 0.1237(2) 0.0367(2) 0.81(7) 1. 0
O1 O2- 96 g 0.8940(4) 0.9991(5) 0.1103(4) 2.0(4) 1. 0
O2 O2- 96 g 0.9974(4) 0.9994(4) 0.1441(4) 1.2(2) 1. 0
O3 O2- 96 g 0.1806(5) 0.0747(5) 0.2811(5) 2.1(3) 1. 0
O4 O2- 96 g 0.9268(4) 0.0725(5) 0.1752(5) 1.8(3) 1. 0
Se1 Se1+ 32 e 0.0574(6) 0.0574(6) 0.0574(6) 4.8(5) 0.184(12) 0
Se2 Se1+ 32 e 0.072(1) 0.072(1) 0.072(1) 6.7(9) 0.125(16) 0
Se3 Se1+ 32 e 0.166(2) 0.166(2) 0.166(2) 9.(2) 0.125(16) 0
Se4 Se1+ 32 e 0.2363(4) 0.2363(4) 0.2363(4) 3.2(4) 0.256(7) 0
Se5 Se1+ 48 f 0.125 0.125 0.037(2) 9.(1) 0.079(12) 0
Se6 Se1+ 96 g 0.274(2) 0.303(2) 0.279(2) 8.(1) 0.072(6) 0
Se7 Se1+ 96 g 0.092(2) 0.155(2) 0.448(2) 7.(1) 0.074(8) 0
Se8 Se1+ 96 g 0.509(4) 0.238(3) 0.356(3) 5.(2) 0.034(6) 0
Se9 Se1+ 96 g 0.418(41) 0.285(4) 0.306(4) 6.(2) 0.030(7) 0
Na1 Na1+ 16 c 0 0 0 1.1(7) 0.275(37) 0
Na2 Na1+ 32 e 0.231(3) 0.231(3) 0.231(3) 2.(2) 0.094(6) 0
#End of TTdata_91530-ICSD