
#(C) 2019 by FIZ Karlsruhe - Leibniz Institute for Information Infrastructure.  All rights reserved.
data_91543-ICSD
_database_code_ICSD 91543
_audit_creation_date 2002-10-01
_audit_update_record 2009-02-01
_chemical_name_systematic
'Sodium dihydrogenphosphate(V) - phosphoric acid (1/1) - beta'
_chemical_formula_structural 'Na (H2 P O4) (H3 P O4)'
_chemical_formula_sum 'H5 Na1 O8 P2'
_exptl_crystal_density_diffrn 2.13
_publ_section_title

;
Crystal structure of two modifications of sodium hydrogen phosphate Na H5 (P
O4)2
;
loop_
_citation_id
_citation_journal_full
_citation_year
_citation_journal_volume
_citation_page_first
_citation_page_last
_citation_journal_id_ASTM
primary Kristallografiya 2000 45 620 624 KRISAJ
loop_
_publ_author_name
'Kosterina, E.V.'
'Rybakov, V.B.'
'Kemnitz, E.'
'Troyanov, S.I.'
_cell_length_a 7.127(2)
_cell_length_b 13.346(4)
_cell_length_c 7.177(2)
_cell_angle_alpha 90.
_cell_angle_beta 95.51(2)
_cell_angle_gamma 90.
_cell_volume 679.5
_cell_formula_units_Z 4
_symmetry_space_group_name_H-M 'P 1 21/c 1'
_symmetry_Int_Tables_number 14
_refine_ls_R_factor_all 0.023
loop_
_symmetry_equiv_pos_site_id
_symmetry_equiv_pos_as_xyz
1 'x, -y+1/2, z+1/2'
2 '-x, -y, -z'
3 '-x, y+1/2, -z+1/2'
4 'x, y, z'
loop_
_atom_type_symbol
_atom_type_oxidation_number
Na1+ 1
P5+ 5
O2- -2
H1+ 1
loop_
_atom_site_label
_atom_site_type_symbol
_atom_site_symmetry_multiplicity
_atom_site_Wyckoff_symbol
_atom_site_fract_x
_atom_site_fract_y
_atom_site_fract_z
_atom_site_B_iso_or_equiv
_atom_site_occupancy
_atom_site_attached_hydrogens
Na1 Na1+ 4 e 0.3218(1) 0.1175(1) 0.1428(1) 0.013(1) 1. 0
P1 P5+ 4 e 0.7977(1) 0.1407(1) 0.0276(1) 0.009(1) 1. 0
P2 P5+ 4 e 0.2584(1) 0.1084(1) 0.6205(1) 0.011(1) 1. 0
O1 O2- 4 e 0.8547(1) 0.2373(1) -.0584(1) 0.015(1) 1. 0
O2 O2- 4 e 0.6957(1) 0.0659(1) 0.8127(1) 0.013(1) 1. 0
O3 O2- 4 e 0.6615(1) 0.1582(1) 0.1845(1) 0.014(1) 1. 0
O4 O2- 4 e 0.9826(1) 0.0914(1) 0.1219(1) 0.011(1) 1. 0
O5 O2- 4 e 0.3685(1) 0.1133(1) 0.8125(1) 0.015(1) 1. 0
O6 O2- 4 e 0.0795(1) 0.0454(1) 0.6357(1) 0.014(1) 1. 0
O7 O2- 4 e 0.3762(1) 0.0698(1) 0.4683(1) 0.015(1) 1. 0
O8 O2- 4 e 0.1956(1) 0.2170(1) 0.5628(2) 0.017(1) 1. 0
H1 H1+ 4 e 0.710(3) 0.191(2) 0.268(3) 0.036(6) 1. 0
H2 H1+ 4 e 0.960(4) 0.049(2) 0.180(3) 0.037(7) 1. 0
H3 H1+ 4 e 0.079(4) 0.221(2) 0.525(4) 0.046(7) 1. 0
H4 H1+ 4 e 0.595(4) 0.081(3) 0.870(7) 0.03(1) 0.5 0
H5 H1+ 4 e 0.481(8) 0.095(4) 0.818(8) 0.05(1) 0.5 0
H6 H1+ 4 e 0.028(7) 0.022(4) 0.550(7) 0.03(1) 0.5 0
H7 H1+ 4 e 0.440(7) 0.029(3) 0.506(7) 0.05(2) 0.5 0
#End of TTdata_91543-ICSD