
#(C) 2019 by FIZ Karlsruhe - Leibniz Institute for Information Infrastructure.  All rights reserved.
data_91546-ICSD
_database_code_ICSD 91546
_audit_creation_date 2002-10-01
_audit_update_record 2009-02-01
_chemical_name_systematic 'Disodium titanogermanate'
_chemical_formula_structural 'Na2 (Ti Ge O5)'
_chemical_formula_sum 'Ge1 Na2 O5 Ti1'
_chemical_name_structure_type Na2Ti(SiO4)O
_exptl_crystal_density_diffrn 3.58
_publ_section_title

;
Refinement of crystal structure of Ge analog of natisite Na2 (Ti O Ge O4) and
prediction of new phases with anionic (M T O5) radicals
;
loop_
_citation_id
_citation_journal_full
_citation_year
_citation_journal_volume
_citation_page_first
_citation_page_last
_citation_journal_id_ASTM
primary Kristallografiya 2000 45 635 641 KRISAJ
loop_
_publ_author_name
'Yakubovich, O.V.'
'Kireev, V.V.'
'Mel'nikov, O.K. (Melnikov, O.K.)'
_cell_length_a 6.658(1)
_cell_length_b 6.658(1)
_cell_length_c 5.161(1)
_cell_angle_alpha 90.
_cell_angle_beta 90.
_cell_angle_gamma 90.
_cell_volume 228.78
_cell_formula_units_Z 2
_symmetry_space_group_name_H-M 'P 4/n m m Z'
_symmetry_Int_Tables_number 129
_refine_ls_R_factor_all 0.03
loop_
_symmetry_equiv_pos_site_id
_symmetry_equiv_pos_as_xyz
1 'y+1/2, x+1/2, -z'
2 '-y, x+1/2, -z'
3 'y+1/2, -x, -z'
4 '-y, -x, -z'
5 'x+1/2, y+1/2, -z'
6 '-x, y+1/2, -z'
7 'x+1/2, -y, -z'
8 '-x, -y, -z'
9 '-y+1/2, -x+1/2, z'
10 'y, -x+1/2, z'
11 '-y+1/2, x, z'
12 'y, x, z'
13 '-x+1/2, -y+1/2, z'
14 'x, -y+1/2, z'
15 '-x+1/2, y, z'
16 'x, y, z'
loop_
_atom_type_symbol
_atom_type_oxidation_number
Ge4+ 4
Ti4+ 4
Na1+ 1
O2- -2
loop_
_atom_site_label
_atom_site_type_symbol
_atom_site_symmetry_multiplicity
_atom_site_Wyckoff_symbol
_atom_site_fract_x
_atom_site_fract_y
_atom_site_fract_z
_atom_site_B_iso_or_equiv
_atom_site_occupancy
_atom_site_attached_hydrogens
Ge1 Ge4+ 2 b 0.75 0.25 0.5 0.0053(1) 1. 0
Ti1 Ti4+ 2 c 0.25 0.25 0.5743(2) 0.0056(2) 1. 0
Na1 Na1+ 4 d 0.5 0 0 0.0167(4) 1. 0
O1 O2- 8 i 0.75 0.0346(3) 0.3062(4) 0.0081(4) 1. 0
O2 O2- 2 c 0.25 0.25 0.2432(9) 0.0141(9) 1. 0
#End of TTdata_91546-ICSD