
#(C) 2019 by FIZ Karlsruhe - Leibniz Institute for Information Infrastructure.  All rights reserved.
data_91904-ICSD
_database_code_ICSD 91904
_audit_creation_date 2002-10-01
_chemical_name_systematic
'Strontium sodium lanthanum titanate (0.5/0.25/0.25/1)'
_chemical_formula_structural '(Sr0.5 Na0.25 La0.25) (Ti O3)'
_chemical_formula_sum 'La0.25 Na0.25 O3 Sr0.5 Ti1'
_chemical_name_structure_type Perovskite-SrTiO3
_chemical_name_mineral 'Tausonite-loparite solid solution'
_exptl_crystal_density_diffrn 5.07
_publ_section_title

;
Crystal chemistry of perovskite-type compounds in the tausonite-loparite
series, (Sr1-2x Nax Lax) Ti O3
;
loop_
_citation_id
_citation_journal_full
_citation_year
_citation_journal_volume
_citation_page_first
_citation_page_last
_citation_journal_id_ASTM
primary 'Physics and Chemistry of Minerals' 2000 27 583 589 PCMIDU
loop_
_publ_author_name
'Mitchell, R.H.'
'Chakhmouradian, A.R.'
'Woodward, P.M.'
_cell_length_a 5.5016(2)
_cell_length_b 5.5016(2)
_cell_length_c 7.7976(6)
_cell_angle_alpha 90.
_cell_angle_beta 90.
_cell_angle_gamma 90.
_cell_volume 236.01
_cell_formula_units_Z 4
_symmetry_space_group_name_H-M 'I 4/m c m'
_symmetry_Int_Tables_number 140
_refine_ls_R_factor_all 0.046
loop_
_symmetry_equiv_pos_site_id
_symmetry_equiv_pos_as_xyz
1 'y, x, -z+1/2'
2 '-y, -x, -z+1/2'
3 '-y, x, -z'
4 'y, -x, -z'
5 'x, -y, -z+1/2'
6 '-x, y, -z+1/2'
7 'x, y, -z'
8 '-x, -y, -z'
9 '-y, -x, z+1/2'
10 'y, x, z+1/2'
11 'y, -x, z'
12 '-y, x, z'
13 '-x, y, z+1/2'
14 'x, -y, z+1/2'
15 '-x, -y, z'
16 'x, y, z'
17 'y+1/2, x+1/2, -z'
18 '-y+1/2, -x+1/2, -z'
19 '-y+1/2, x+1/2, -z+1/2'
20 'y+1/2, -x+1/2, -z+1/2'
21 'x+1/2, -y+1/2, -z'
22 '-x+1/2, y+1/2, -z'
23 'x+1/2, y+1/2, -z+1/2'
24 '-x+1/2, -y+1/2, -z+1/2'
25 '-y+1/2, -x+1/2, z'
26 'y+1/2, x+1/2, z'
27 'y+1/2, -x+1/2, z+1/2'
28 '-y+1/2, x+1/2, z+1/2'
29 '-x+1/2, y+1/2, z'
30 'x+1/2, -y+1/2, z'
31 '-x+1/2, -y+1/2, z+1/2'
32 'x+1/2, y+1/2, z+1/2'
loop_
_atom_type_symbol
_atom_type_oxidation_number
Sr2+ 2
Na1+ 1
La3+ 3
Ti4+ 4
O2- -2
loop_
_atom_site_label
_atom_site_type_symbol
_atom_site_symmetry_multiplicity
_atom_site_Wyckoff_symbol
_atom_site_fract_x
_atom_site_fract_y
_atom_site_fract_z
_atom_site_B_iso_or_equiv
_atom_site_occupancy
_atom_site_attached_hydrogens
Sr1 Sr2+ 4 b 0 0.5 0.25 0.93(3) 0.5 0
Na1 Na1+ 4 b 0 0.5 0.25 0.93(3) 0.25 0
La1 La3+ 4 b 0 0.5 0.25 0.93(3) 0.25 0
Ti1 Ti4+ 4 c 0 0 0 0.84(4) 1. 0
O1 O2- 4 a 0 0 0.25 2.2(8) 1. 0
O2 O2- 8 h 0.233(2) 0.733(2) 0 0.6(3) 1. 0
#End of TTdata_91904-ICSD