
#(C) 2019 by FIZ Karlsruhe - Leibniz Institute for Information Infrastructure.  All rights reserved.
data_91908-ICSD
_database_code_ICSD 91908
_audit_creation_date 2002-10-01
_chemical_name_systematic 'Strontium sodium lanthanum titanate (0.2/0.4/0.4/1)'
_chemical_formula_structural '(Sr0.2 Na0.4 La0.4) (Ti O3)'
_chemical_formula_sum 'La0.4 Na0.4 O3 Sr0.2 Ti1'
_chemical_name_structure_type Perovskite-LaAlO3
_chemical_name_mineral 'Tausonite-loparite solid solution'
_exptl_crystal_density_diffrn 5.06
_publ_section_title

;
Crystal chemistry of perovskite-type compounds in the tausonite-loparite
series, (Sr1-2x Nax Lax) Ti O3
;
loop_
_citation_id
_citation_journal_full
_citation_year
_citation_journal_volume
_citation_page_first
_citation_page_last
_citation_journal_id_ASTM
primary 'Physics and Chemistry of Minerals' 2000 27 583 589 PCMIDU
loop_
_publ_author_name
'Mitchell, R.H.'
'Chakhmouradian, A.R.'
'Woodward, P.M.'
_cell_length_a 5.4882(9)
_cell_length_b 5.4882(9)
_cell_length_c 13.442(2)
_cell_angle_alpha 90.
_cell_angle_beta 90.
_cell_angle_gamma 120.
_cell_volume 350.63
_cell_formula_units_Z 6
_symmetry_space_group_name_H-M 'R -3 c H'
_symmetry_Int_Tables_number 167
_refine_ls_R_factor_all 0.042
loop_
_symmetry_equiv_pos_site_id
_symmetry_equiv_pos_as_xyz
1 'x-y, -y, -z+1/2'
2 '-x, -x+y, -z+1/2'
3 'y, x, -z+1/2'
4 'x-y, x, -z'
5 'y, -x+y, -z'
6 '-x, -y, -z'
7 '-x+y, y, z+1/2'
8 'x, x-y, z+1/2'
9 '-y, -x, z+1/2'
10 '-x+y, -x, z'
11 '-y, x-y, z'
12 'x, y, z'
13 'x-y+2/3, -y+1/3, -z+5/6'
14 '-x+2/3, -x+y+1/3, -z+5/6'
15 'y+2/3, x+1/3, -z+5/6'
16 'x-y+2/3, x+1/3, -z+1/3'
17 'y+2/3, -x+y+1/3, -z+1/3'
18 '-x+2/3, -y+1/3, -z+1/3'
19 '-x+y+2/3, y+1/3, z+5/6'
20 'x+2/3, x-y+1/3, z+5/6'
21 '-y+2/3, -x+1/3, z+5/6'
22 '-x+y+2/3, -x+1/3, z+1/3'
23 '-y+2/3, x-y+1/3, z+1/3'
24 'x+2/3, y+1/3, z+1/3'
25 'x-y+1/3, -y+2/3, -z+1/6'
26 '-x+1/3, -x+y+2/3, -z+1/6'
27 'y+1/3, x+2/3, -z+1/6'
28 'x-y+1/3, x+2/3, -z+2/3'
29 'y+1/3, -x+y+2/3, -z+2/3'
30 '-x+1/3, -y+2/3, -z+2/3'
31 '-x+y+1/3, y+2/3, z+1/6'
32 'x+1/3, x-y+2/3, z+1/6'
33 '-y+1/3, -x+2/3, z+1/6'
34 '-x+y+1/3, -x+2/3, z+2/3'
35 '-y+1/3, x-y+2/3, z+2/3'
36 'x+1/3, y+2/3, z+2/3'
loop_
_atom_type_symbol
_atom_type_oxidation_number
Sr2+ 2
Na1+ 1
La3+ 3
Ti4+ 4
O2- -2
loop_
_atom_site_label
_atom_site_type_symbol
_atom_site_symmetry_multiplicity
_atom_site_Wyckoff_symbol
_atom_site_fract_x
_atom_site_fract_y
_atom_site_fract_z
_atom_site_B_iso_or_equiv
_atom_site_occupancy
_atom_site_attached_hydrogens
Sr1 Sr2+ 6 a 0 0 0.25 0.89(3) 0.2 0
Na1 Na1+ 6 a 0 0 0.25 0.89(3) 0.4 0
La1 La3+ 6 a 0 0 0.25 0.89(3) 0.4 0
Ti1 Ti4+ 6 b 0 0 0 1.0(4) 1. 0
O1 O2- 18 e 0.533(2) 0 0.25 1.3(1) 1. 0
#End of TTdata_91908-ICSD