
#(C) 2019 by FIZ Karlsruhe - Leibniz Institute for Information Infrastructure.  All rights reserved.
data_92179-ICSD
_database_code_ICSD 92179
_audit_creation_date 2002-10-01
_chemical_name_systematic 'Disodium tecto-plumbodiphosphate(V)'
_chemical_formula_structural 'Na2 Pb P2 O7'
_chemical_formula_sum 'Na2 O7 P2 Pb1'
_chemical_name_structure_type Na2ZrSi2O7
_exptl_crystal_density_diffrn 4.39
_cell_measurement_temperature 301.
_publ_section_title

;
Crystal structure and ionic conductivity of crystalline and glassy Na2 Pb P2
O7
;
loop_
_citation_id
_citation_journal_full
_citation_year
_citation_journal_volume
_citation_page_first
_citation_page_last
_citation_journal_id_ASTM
primary 'Solid State Ionics' 2000 127 141 149 SSIOD3
loop_
_publ_author_name
'Dridi, N.'
'Boukhari, A.'
'Reau, J.M.'
'Arbib, E.'
'Holt, E.M.'
_cell_length_a 5.533(4)
_cell_length_b 6.942(4)
_cell_length_c 9.440(4)
_cell_angle_alpha 105.58(2)
_cell_angle_beta 97.03(4)
_cell_angle_gamma 108.32(4)
_cell_volume 322.97
_cell_formula_units_Z 2
_symmetry_space_group_name_H-M 'P -1'
_symmetry_Int_Tables_number 2
_refine_ls_R_factor_all 0.033
loop_
_symmetry_equiv_pos_site_id
_symmetry_equiv_pos_as_xyz
1 '-x, -y, -z'
2 'x, y, z'
loop_
_atom_type_symbol
_atom_type_oxidation_number
Pb2+ 2
Na1+ 1
P5+ 5
O2- -2
loop_
_atom_site_label
_atom_site_type_symbol
_atom_site_symmetry_multiplicity
_atom_site_Wyckoff_symbol
_atom_site_fract_x
_atom_site_fract_y
_atom_site_fract_z
_atom_site_B_iso_or_equiv
_atom_site_occupancy
_atom_site_attached_hydrogens
Pb1 Pb2+ 2 i 0.1371(1) 0.1337(1) 0.3747(1) 0.013(1) 1. 0
Na1 Na1+ 2 i 0.6561(7) 0.3651(6) 0.2277(4) 0.023(1) 1. 0
Na2 Na1+ 2 i 0.1013(8) 0.2856(7) -.0067(5) 0.031(1) 1. 0
P1 P5+ 2 i 0.2484(4) 0.6395(3) 0.3599(2) 0.011(1) 1. 0
P2 P5+ 2 i 0.4756(4) 0.8639(3) 0.1604(2) 0.010(1) 1. 0
O1 O2- 2 i 0.3398(13) 0.6798(1) 0.5274(6) 0.020(2) 1. 0
O2 O2- 2 i 0.0126(12) 0.6978(1) 0.3172(8) 0.021(2) 1. 0
O3 O2- 2 i 0.2146(1) 0.4099(9) 0.2630(7) 0.020(2) 1. 0
O4 O2- 2 i 0.4909(10) 0.8015(9) 0.3143(6) 0.013(2) 1. 0
O5 O2- 2 i 0.3189(12) 0.0131(10) 0.1749(7) 0.016(2) 1. 0
O6 O2- 2 i 0.7608(11) -.0207(10) 0.1636(7) 0.016(2) 1. 0
O7 O2- 2 i 0.3374(12) 0.6604(10) 0.0270(6) 0.017(2) 1. 0
#End of TTdata_92179-ICSD