
#(C) 2019 by FIZ Karlsruhe - Leibniz Institute for Information Infrastructure.  All rights reserved.
data_92252-ICSD
_database_code_ICSD 92252
_audit_creation_date 2002-10-01
_chemical_name_systematic 'Sodium chromium titanium oxide (1.7/1.71/6.29/16)'
_chemical_formula_structural 'Na1.7 (Cr1.71 Ti6.29) O16'
_chemical_formula_sum 'Cr1.71 Na1.7 O16 Ti6.29'
_chemical_name_structure_type BaCsxAl2Ti6O16
_exptl_crystal_density_diffrn 3.76
_cell_measurement_temperature 773.
_publ_section_title

;
High-temperature X-ray study for a single crystal of the hollandite-like
one-dimensional ionic conductor, Nax Crx Ti8-x O16 (x = 1.7)
;
loop_
_citation_id
_citation_journal_full
_citation_year
_citation_journal_volume
_citation_page_first
_citation_page_last
_citation_journal_id_ASTM
primary 'Solid State Ionics' 2000 136 939 943 SSIOD3
loop_
_publ_author_name
'Michiue, Y.'
'Watanabe, M.'
'Yoshikado, S.'
_cell_length_a 10.099(2)
_cell_length_b 10.099(2)
_cell_length_c 2.971(2)
_cell_angle_alpha 90.
_cell_angle_beta 90.
_cell_angle_gamma 90.
_cell_volume 303.01
_cell_formula_units_Z 1
_symmetry_space_group_name_H-M 'I 4/m'
_symmetry_Int_Tables_number 87
_refine_ls_R_factor_all 0.033
loop_
_symmetry_equiv_pos_site_id
_symmetry_equiv_pos_as_xyz
1 '-y, x, -z'
2 'y, -x, -z'
3 'x, y, -z'
4 '-x, -y, -z'
5 'y, -x, z'
6 '-y, x, z'
7 '-x, -y, z'
8 'x, y, z'
9 '-y+1/2, x+1/2, -z+1/2'
10 'y+1/2, -x+1/2, -z+1/2'
11 'x+1/2, y+1/2, -z+1/2'
12 '-x+1/2, -y+1/2, -z+1/2'
13 'y+1/2, -x+1/2, z+1/2'
14 '-y+1/2, x+1/2, z+1/2'
15 '-x+1/2, -y+1/2, z+1/2'
16 'x+1/2, y+1/2, z+1/2'
loop_
_atom_type_symbol
_atom_type_oxidation_number
Na1+ 1
Ti4+ 4
Cr3+ 3
O2- -2
loop_
_atom_site_label
_atom_site_type_symbol
_atom_site_symmetry_multiplicity
_atom_site_Wyckoff_symbol
_atom_site_fract_x
_atom_site_fract_y
_atom_site_fract_z
_atom_site_B_iso_or_equiv
_atom_site_occupancy
_atom_site_attached_hydrogens
Na1 Na1+ 8 h 0.071(2) 0.010(3) 0.5 6.30(12) 0.120(3) 0
Na2 Na1+ 4 e 0 0 0.24(2) 10.9(4) 0.15(1) 0
Na3 Na1+ 2 a 0 0 0 5.40(34) 0.07 0
Ti1 Ti4+ 8 h 0.35112(4) 0.16793(4) 0 1.27(1) 0.786 0
Cr1 Cr3+ 8 h 0.35112(4) 0.16793(4) 0 1.27(1) 0.214 0
O1 O2- 8 h 0.1544(2) 0.2024(2) 0 1.13(5) 1. 0
O2 O2- 8 h 0.5418(2) 0.1643(2) 0 1.30(5) 1. 0
#End of TTdata_92252-ICSD