
#(C) 2019 by FIZ Karlsruhe - Leibniz Institute for Information Infrastructure.  All rights reserved.
data_92706-ICSD
_database_code_ICSD 92706
_audit_creation_date 2003-04-01
_audit_update_record 2015-02-01
_chemical_name_systematic 'Sodium aluminium oxide (0.67/6/9.33)'
_chemical_formula_structural 'Na0.67 Al6 O9.33'
_chemical_formula_sum 'Al6 Na0.67 O9.33'
_chemical_name_structure_type Na1-xAl6O9+y
_exptl_crystal_density_diffrn 3.15
_publ_section_title 'Crystal structures of Na and K aluminate mullites'
loop_
_citation_id
_citation_journal_full
_citation_year
_citation_journal_volume
_citation_page_first
_citation_page_last
_citation_journal_id_ASTM
primary 'American Mineralogist' 2001 86 1513 1518 AMMIAY
loop_
_publ_author_name
'Fischer, R.X.'
'Schmuecker, M.'
'Angerer, P.'
'Schneider, H.'
_cell_length_a 7.6819(4)
_cell_length_b 7.6810(4)
_cell_length_c 2.91842(8)
_cell_angle_alpha 90
_cell_angle_beta 90
_cell_angle_gamma 90
_cell_volume 172.2
_cell_formula_units_Z 1
_symmetry_space_group_name_H-M 'P b a m'
_symmetry_Int_Tables_number 55
_refine_ls_R_factor_all 0.022
loop_
_symmetry_equiv_pos_site_id
_symmetry_equiv_pos_as_xyz
1 'x+1/2, -y+1/2, z'
2 '-x+1/2, y+1/2, z'
3 'x, y, -z'
4 '-x, -y, -z'
5 '-x+1/2, y+1/2, -z'
6 'x+1/2, -y+1/2, -z'
7 '-x, -y, z'
8 'x, y, z'
loop_
_atom_type_symbol
_atom_type_oxidation_number
Na1+ 1
Al3+ 3
O2- -2
loop_
_atom_site_label
_atom_site_type_symbol
_atom_site_symmetry_multiplicity
_atom_site_Wyckoff_symbol
_atom_site_fract_x
_atom_site_fract_y
_atom_site_fract_z
_atom_site_B_iso_or_equiv
_atom_site_occupancy
_atom_site_attached_hydrogens
Na1 Na1+ 4 h 0.087(3) 0.561(3) 0.5 1.4(5) 0.167 0
Al1 Al3+ 2 a 0 0 0 0.79(5) 1. 0
Al2 Al3+ 4 h 0.1510(5) 0.3331(5) 0.5 0.83(6) 0.667 0
Al3 Al3+ 4 h 0.2691(8) 0.1956(9) 0.5 1.1(2) 0.333 0
O1 O2- 4 h 0.3602(6) 0.4211(5) 0.5 1.31(9) 1. 0
O2 O2- 4 h 0.4843(32) 0.0458(19) 0.5 1.1(4) 0.333 0
O3 O2- 4 g 0.1318(7) 0.2124(5) 0 1.2(1) 1. 0
#End of TTdata_92706-ICSD