
#(C) 2019 by FIZ Karlsruhe - Leibniz Institute for Information Infrastructure.  All rights reserved.
data_9271-ICSD
_database_code_ICSD 9271
_audit_creation_date 1980-01-01
_audit_update_record 2015-08-01
_chemical_name_systematic 'Sodium beryllium phosphate'
_chemical_formula_structural 'Na Be P O4'
_chemical_formula_sum 'Be1 Na1 O4 P1'
_chemical_name_structure_type NaBePO4
_chemical_name_mineral Beryllonite
_exptl_crystal_density_diffrn 2.8
_publ_section_title
'Refinement of the Crystal Structure of Beryllonite, Na Be P O4'
loop_
_citation_id
_citation_journal_full
_citation_year
_citation_journal_volume
_citation_page_first
_citation_page_last
_citation_journal_id_ASTM
primary 'Tschermaks Mineralogische und Petrographische Mitteilungen' 1973 20 1
12 MPMTAG
loop_
_publ_author_name
'Giuseppetti, G.'
'Tadini, C.'
_cell_length_a 8.178(3)
_cell_length_b 7.818(2)
_cell_length_c 14.114(6)
_cell_angle_alpha 90.
_cell_angle_beta 90.00(2)
_cell_angle_gamma 90.
_cell_volume 902.39
_cell_formula_units_Z 12
_symmetry_space_group_name_H-M 'P 1 21/n 1'
_symmetry_Int_Tables_number 14
_refine_ls_R_factor_all 0.063
loop_
_symmetry_equiv_pos_site_id
_symmetry_equiv_pos_as_xyz
1 '-x+1/2, y+1/2, -z+1/2'
2 '-x, -y, -z'
3 'x+1/2, -y+1/2, z+1/2'
4 'x, y, z'
loop_
_atom_type_symbol
_atom_type_oxidation_number
Na1+ 1
Be2+ 2
P5+ 5
O2- -2
loop_
_atom_site_label
_atom_site_type_symbol
_atom_site_symmetry_multiplicity
_atom_site_Wyckoff_symbol
_atom_site_fract_x
_atom_site_fract_y
_atom_site_fract_z
_atom_site_B_iso_or_equiv
_atom_site_occupancy
_atom_site_attached_hydrogens
Na1 Na1+ 4 e 0.2477(3) 0.0046(4) 0.2499(2) . 1. 0
Na2 Na1+ 4 e 0.7308(3) 0.4712(3) 0.0881(2) . 1. 0
Na3 Na1+ 4 e 0.7737(3) 0.0305(3) 0.0682(1) . 1. 0
Be1 Be2+ 4 e 0.9220(8) 0.1699(9) 0.2411(4) . 1. 0
Be2 Be2+ 4 e 0.3991(8) 0.1693(10) 0.4190(5) . 1. 0
Be3 Be2+ 4 e 0.4329(8) 0.171(1) 0.0910(5) . 1. 0
P1 P5+ 4 e 0.5806(1) 0.2858(2) 0.2628(1) . 1. 0
P2 P5+ 4 e 0.1069(1) 0.2902(2) 0.0813(1) . 1. 0
P3 P5+ 4 e 0.0689(1) 0.2887(2) 0.4084(1) . 1. 0
O1 O2- 4 e 0.4411(4) 0.2678(5) 0.1906(2) . 1. 0
O2 O2- 4 e 0.0662(4) 0.2686(5) 0.1855(2) . 1. 0
O3 O2- 4 e 0.2483(4) 0.2770(6) 0.3762(2) . 1. 0
O4 O2- 4 e 0.7430(5) 0.2499(5) 0.2137(3) . 1. 0
O5 O2- 4 e 0.9524(4) 0.2520(5) 0.0223(2) . 1. 0
O6 O2- 4 e 0.5600(4) 0.2534(5) 0.0134(2) . 1. 0
O7 O2- 4 e 0.5550(5) 0.1652(5) 0.3458(3) . 1. 0
O8 O2- 4 e 0.2449(4) 0.1674(5) 0.0527(2) . 1. 0
O9 O2- 4 e 0.9609(4) 0.1645(5) 0.3530(3) . 1. 0
O10 O2- 4 e 0.5769(5) 0.4702(5) 0.2994(2) . 1. 0
O11 O2- 4 e 0.1663(4) 0.4724(5) 0.0642(3) . 1. 0
O12 O2- 4 e 0.0068(5) 0.4701(6) 0.3904(2) . 1. 0
loop_
_atom_site_aniso_label
_atom_site_aniso_type_symbol
_atom_site_aniso_beta_11
_atom_site_aniso_beta_22
_atom_site_aniso_beta_33
_atom_site_aniso_beta_12
_atom_site_aniso_beta_13
_atom_site_aniso_beta_23
Na1 Na1+ 0.00759(35) 0.00710(57) 0.00261(12) -.00025(33) -.00002(16) -.00007(19)
Na2 Na1+ 0.00581(33) 0.00418(46) 0.00190(11) -.00011(30) 0.00071(15) -.00041(17)
Na3 Na1+ 0.00391(30) 0.00552(47) 0.00141(10) -.00073(29) -.00045(14) -.00044(16)
Be1 Be2+ 0.00080(83) 0.0041(13) 0.00083(27) -.00003(76) 0.00011(37) 0.00036(43)
Be2 Be2+ 0.00312(91) 0.0030(14) 0.00118(30) -.00078(84) -.00051(40) -.00004(48)
Be3 Be2+ 0.00184(85) 0.0061(14) 0.00020(28) -.00083(80) 0.00021(38) 0.00037(45)
P1 P5+ 0.00102(15) 0.00145(25) 0.00047(5) -.00006(15) -.00007(7) 0.00002(8)
P2 P5+ 0.00105(15) 0.00137(25) 0.00063(5) -.00011(15) -.00012(7) 0.00004(9)
P3 P5+ 0.00088(16) 0.00119(25) 0.00054(5) 0.00016(15) -.00004(7) -.00014(9)
O1 O2- 0.00191(45) 0.00401(74) 0.00061(15) 0.00057(45) -.00015(21) -.00057(25)
O2 O2- 0.00343(50) 0.00587(79) 0.00052(15) -.00044(49) -.00011(21) 0.00044(26)
O3 O2- 0.00205(49) 0.00562(79) 0.00132(17) 0.00018(47) 0.00034(22) -.00003(28)
O4 O2- 0.00359(51) 0.00579(80) 0.00123(17) 0.00004(51) 0.00039(23) 0.00016(29)
O5 O2- 0.00143(45) 0.00486(77) 0.00117(17) -.00059(45) -.00027(21) 0.00013(26)
O6 O2- 0.00250(47) 0.00596(78) 0.00099(16) -.00071(48) 0.00015(22) 0.00036(28)
O7 O2- 0.00380(52) 0.00420(77) 0.00123(17) 0.00038(48) 0.00034(24) 0.00012(27)
O8 O2- 0.00311(52) 0.00341(76) 0.00130(17) 0.00019(46) -.00002(24) -.00023(27)
O9 O2- 0.00359(53) 0.00255(73) 0.00130(17) 0.00068(46) -.00002(24) 0.00022(27)
O10 O2- 0.00542(57) 0.00240(76) 0.00106(17) 0.00032(50) 0.00003(24) -.00006(27)
O11 O2- 0.00328(50) 0.00208(75) 0.00148(17) 0.00006(47) 0.00000(23) 0.00024(27)
O12 O2- 0.00438(53) 0.00375(80) 0.00122(18) 0.00063(50) -.00057(24) 0.00033(27)
#End of TTdata_9271-ICSD