
#(C) 2019 by FIZ Karlsruhe - Leibniz Institute for Information Infrastructure.  All rights reserved.
data_92822-ICSD
_database_code_ICSD 92822
_audit_creation_date 2003-04-01
_audit_update_record 2014-08-01
_chemical_name_systematic 'Sodium boron silicate'
_chemical_formula_structural 'Na B (Si O4)'
_chemical_formula_sum 'B1 Na1 O4 Si1'
_chemical_name_structure_type NaBSiO4
_chemical_name_mineral Malinkoite
_exptl_crystal_density_diffrn 2.92
_publ_section_title

;
The crystal chemistry of malinkoite, Na B Si O4, and lisitsynite, K B Si2 O6,
from the Khibina-Lovozero complex, Kola peninsula, Russia
;
loop_
_citation_id
_citation_journal_full
_citation_year
_citation_journal_volume
_citation_page_first
_citation_page_last
_citation_journal_id_ASTM
primary 'Canadian Mineralogist' 2001 39 159 169 CAMIA6
loop_
_publ_author_name
'Sokolova, E.V.'
'Hawthorne, F.C.'
'Khomyakov, A.P.'
_cell_length_a 13.8964(4)
_cell_length_b 13.8964(4)
_cell_length_c 7.7001(2)
_cell_angle_alpha 90
_cell_angle_beta 90
_cell_angle_gamma 120
_cell_volume 1287.75
_cell_formula_units_Z 18
_symmetry_space_group_name_H-M 'P 63'
_symmetry_Int_Tables_number 173
_refine_ls_R_factor_all 0.038
loop_
_symmetry_equiv_pos_site_id
_symmetry_equiv_pos_as_xyz
1 'x-y, x, z+1/2'
2 'y, -x+y, z+1/2'
3 '-x, -y, z+1/2'
4 '-x+y, -x, z'
5 '-y, x-y, z'
6 'x, y, z'
loop_
_atom_type_symbol
_atom_type_oxidation_number
Si4+ 4
B3+ 3
Na1+ 1
O2- -2
loop_
_atom_site_label
_atom_site_type_symbol
_atom_site_symmetry_multiplicity
_atom_site_Wyckoff_symbol
_atom_site_fract_x
_atom_site_fract_y
_atom_site_fract_z
_atom_site_B_iso_or_equiv
_atom_site_occupancy
_atom_site_attached_hydrogens
Si1 Si4+ 6 c 0.87861(7) 0.78275(7) 0.3325(1) 0.0077(2) 1. 0
Si2 Si4+ 6 c 0.78805(6) 0.55086(6) 0.7395(1) 0.0061(2) 1. 0
Si3 Si4+ 6 c 0.43112(6) 0.54549(6) 0.7456(1) 0.0061(2) 1. 0
B1 B3+ 6 c 0.5524(3) 0.7657(3) 0.8665(4) 0.0086(6) 1. 0
B2 B3+ 6 c 0.5670(3) 0.4537(3) 0.8673(4) 0.0089(6) 1. 0
B3 B3+ 6 c 0.1206(3) 0.2191(3) 0.2137(4) 0.0054(7) 1. 0
Na1 Na1+ 2 a 0 0 0.0534(3) 0.0166(6) 1. 0
Na2 Na1+ 6 c 0.6542(1) 0.6668(1) 0.5673(2) 0.0135(3) 1. 0
Na3 Na1+ 2 b 0.3333 0.6667 0.5246(5) 0.0183(5) 1. 0
Na4 Na1+ 2 b 0.6667 0.3333 0.5233(5) 0.0197(5) 1. 0
Na5 Na1+ 6 c 0.3115(1) 0.3262(1) 0.5023(2) 0.0168(3) 1. 0
O1 O2- 6 c 0.8652(2) 0.6626(2) 0.2871(2) 0.0082(6) 1. 0
O2 O2- 6 c 0.5389(2) 0.5350(2) 0.7911(2) 0.0086(6) 1. 0
O3 O2- 6 c 0.8012(2) 0.6714(2) 0.7847(2) 0.0080(6) 1. 0
O4 O2- 6 c 0.8692(2) 0.5288(2) 0.8639(3) 0.0081(4) 1. 0
O5 O2- 6 c 0.0083(2) 0.8777(2) 0.3118(3) 0.0089(5) 1. 0
O6 O2- 6 c 0.3931(2) 0.5113(2) 0.5456(3) 0.0103(4) 1. 0
O7 O2- 6 c 0.3269(2) 0.4647(2) 0.8683(3) 0.0087(4) 1. 0
O8 O2- 6 c 0.8429(2) 0.7873(2) 0.5327(3) 0.0102(4) 1. 0
O9 O2- 6 c 0.6589(2) 0.4559(2) 0.7671(3) 0.0089(5) 1. 0
O10 O2- 6 c 0.8245(2) 0.5479(1) 0.5418(2) 0.0092(4) 1. 0
O11 O2- 6 c 0.4648(2) 0.6758(2) 0.7626(3) 0.0097(4) 1. 0
O12 O2- 6 c 0.7998(2) 0.8064(2) 0.2049(3) 0.0108(5) 1. 0
loop_
_atom_site_aniso_label
_atom_site_aniso_type_symbol
_atom_site_aniso_U_11
_atom_site_aniso_U_22
_atom_site_aniso_U_33
_atom_site_aniso_U_12
_atom_site_aniso_U_13
_atom_site_aniso_U_23
Si1 Si4+ 0.0070(4) 0.0065(4) 0.0099(5) 0.0035(3) 0.0009(4) 0.0004(4)
Si2 Si4+ 0.0062(3) 0.0072(4) 0.0056(3) 0.0038(3) -0.0006(3) 0.0005(3)
Si3 Si4+ 0.0060(3) 0.0061(3) 0.0057(3) 0.0026(3) 0.0008(4) 0.0009(4)
B1 B3+ 0.0075(14) 0.0087(14) 0.0079(15) 0.0029(12) -0.0014(11) 0.0010(11)
B2 B3+ 0.0090(14) 0.0081(14) 0.0107(17) 0.0049(12) -0.0002(11) -0.0022(11)
B3 B3+ 0.0055(14) 0.0084(15) 0.0033(20) 0.0042(12) -0.0010(10) 0.0012(11)
Na1 Na1+ 0.0183(8) 0.0183(8) 0.0131(13) 0.0091(4) 0. 0.
Na2 Na1+ 0.0092(5) 0.0221(6) 0.0056(5) 0.0051(5) 0.0000(4) -0.0003(5)
Na3 Na1+ 0.0180(6) 0.0180(6) 0.0190(13) 0.0090(3) 0. 0.
Na4 Na1+ 0.0188(6) 0.0188(6) 0.0213(14) 0.0094(3) 0. 0.
Na5 Na1+ 0.0207(7) 0.0136(6) 0.0165(6) 0.0089(5) -0.0022(5) 0.0005(4)
O1 O2- 0.0086(13) 0.0067(13) 0.0079(16) 0.0028(11) 0.0036(6) 0.0014(6)
O2 O2- 0.0082(13) 0.0090(14) 0.0105(16) 0.0057(11) 0.0013(6) 0.0036(7)
O3 O2- 0.0093(13) 0.0050(13) 0.0088(16) 0.0030(11) 0.0014(7) 0.0008(6)
O4 O2- 0.0113(9) 0.0095(9) 0.0057(9) 0.0068(8) -0.0022(7) -0.0020(7)
O5 O2- 0.0074(12) 0.0086(12) 0.0105(9) 0.0038(10) 0.0036(9) -0.0002(9)
O6 O2- 0.0120(9) 0.0094(9) 0.0052(9) 0.0020(8) -0.0005(7) -0.0008(8)
O7 O2- 0.0071(9) 0.0113(9) 0.0076(9) 0.0045(8) 0.0004(7) 0.0034(7)
O8 O2- 0.0097(9) 0.0143(10) 0.0060(9) 0.0054(8) 0.0002(9) 0.0006(8)
O9 O2- 0.0042(10) 0.0082(10) 0.0128(9) 0.0020(9) 0.0008(8) -0.0014(8)
O10 O2- 0.0095(9) 0.0143(9) 0.0054(8) 0.0072(8) 0.0015(7) 0.0006(7)
O11 O2- 0.0089(10) 0.0058(10) 0.0137(9) 0.0032(8) -0.0024(9) 0.0000(9)
O12 O2- 0.0134(11) 0.0097(10) 0.0116(12) 0.0075(9) -0.0030(8) -0.0003(8)
#End of TTdata_92822-ICSD