
#(C) 2019 by FIZ Karlsruhe - Leibniz Institute for Information Infrastructure.  All rights reserved.
data_92826-ICSD
_database_code_ICSD 92826
_audit_creation_date 2003-04-01
_chemical_name_systematic 'Hexasodium tetrakis(molybdato)dioxouranate'
_chemical_formula_structural 'Na6 ((U O2) (Mo O4)4)'
_chemical_formula_sum 'Mo4 Na6 O18 U1'
_exptl_crystal_density_diffrn 4.01
_publ_section_title

;
Crystal chemistry of uranyl molybdates.III.New structural themes in Na6 ((U
O2)2 O (Mo O4)4), Na6 ((U O2) (Mo O4)4) and K6 ((U O2)2 O (Mo O4)4)
;
loop_
_citation_id
_citation_journal_full
_citation_year
_citation_journal_volume
_citation_page_first
_citation_page_last
_citation_journal_id_ASTM
primary 'Canadian Mineralogist' 2001 39 197 206 CAMIA6
loop_
_publ_author_name
'Krivovichev, S.V.'
'Burns, P.C.'
_cell_length_a 7.0958(8)
_cell_length_b 9.566(1)
_cell_length_c 13.415(2)
_cell_angle_alpha 73.692(2)
_cell_angle_beta 86.621(2)
_cell_angle_gamma 82.940(2)
_cell_volume 867.04
_cell_formula_units_Z 2
_symmetry_space_group_name_H-M 'P -1'
_symmetry_Int_Tables_number 2
_refine_ls_R_factor_all 0.033
loop_
_symmetry_equiv_pos_site_id
_symmetry_equiv_pos_as_xyz
1 '-x, -y, -z'
2 'x, y, z'
loop_
_atom_type_symbol
_atom_type_oxidation_number
U6+ 6
Mo6+ 6
Na1+ 1
O2- -2
loop_
_atom_site_label
_atom_site_type_symbol
_atom_site_symmetry_multiplicity
_atom_site_Wyckoff_symbol
_atom_site_fract_x
_atom_site_fract_y
_atom_site_fract_z
_atom_site_B_iso_or_equiv
_atom_site_occupancy
_atom_site_attached_hydrogens
U1 U6+ 2 i 0.07313(4) 0.81676(3) 0.32694(2) 0.0138(1) 1. 0
Mo1 Mo6+ 2 i 0.52738(9) 0.49016(7) 0.67448(5) 0.0179(2) 1. 0
Mo2 Mo6+ 2 i 0.23814(9) 0.90941(7) 0.56699(5) 0.0180(2) 1. 0
Mo3 Mo6+ 2 i 0.65636(9) 0.98742(7) 0.15007(5) 0.0186(2) 1. 0
Mo4 Mo6+ 2 i -.07375(9) 0.37198(8) 0.90483(5) 0.0217(2) 1. 0
Na1 Na1+ 2 i 0.0239(4) 0.5886(4) 0.6129(3) 0.0338(8) 1. 0
Na2 Na1+ 2 i 0.3959(4) 0.2488(4) 0.5616(3) 0.0270(7) 1. 0
Na3 Na1+ 2 i 0.7920(5) 0.3176(4) 0.1605(3) 0.0317(8) 1. 0
Na4 Na1+ 2 i 0.8122(5) 0.9665(4) -0.0725(3) 0.0386(9) 1. 0
Na5 Na1+ 2 i 0.7270(5) 0.7915(4) 0.7202(3) 0.0403(9) 1. 0
Na6 Na1+ 2 i 0.4274(5) 0.3404(4) 0.9682(3) 0.0395(9) 1. 0
O1 O2- 2 i 0.0025(7) 0.6443(5) 0.4051(4) 0.022(1) 1. 0
O2 O2- 2 i 0.1169(7) 0.0919(5) 0.5429(4) 0.020(1) 1. 0
O3 O2- 2 i 0.2681(7) 0.8459(6) 0.4537(4) 0.023(1) 1. 0
O4 O2- 2 i 0.1350(8) 0.9946(5) 0.2517(4) 0.023(1) 1. 0
O5 O2- 2 i 0.7570(7) 0.8813(6) 0.2730(4) 0.024(1) 1. 0
O6 O2- 2 i 0.7221(7) 0.3982(6) 0.9801(4) 0.026(1) 1. 0
O7 O2- 2 i 0.6918(7) 0.6165(6) 0.6200(5) 0.028(1) 1. 0
O8 O2- 2 i -0.0887(8) 0.2449(6) 0.8294(5) 0.032(1) 1. 0
O9 O2- 2 i 0.4437(8) 0.5125(6) 0.7943(5) 0.034(1) 1. 0
O10 O2- 2 i 0.6305(7) 0.3051(6) 0.6876(5) 0.026(1) 1. 0
O11 O2- 2 i 0.1138(8) 0.3069(7) 0.9905(5) 0.034(1) 1. 0
O12 O2- 2 i -0.0344(9) 0.5427(7) 0.8164(5) 0.044(2) 1. 0
O13 O2- 2 i 0.4914(9) 0.1351(7) 0.1584(5) 0.038(2) 1. 0
O14 O2- 2 i 0.3398(7) 0.5212(6) 0.5901(5) 0.030(1) 1. 0
O15 O2- 2 i 0.5504(9) 0.8769(7) 0.0919(5) 0.037(1) 1. 0
O16 O2- 2 i 0.1133(9) 0.7919(6) 0.6647(5) 0.032(1) 1. 0
O17 O2- 2 i 0.8411(8) 0.0626(7) 0.0699(5) 0.034(2) 1. 0
O18 O2- 2 i 0.4636(9) 0.9067(7) 0.6101(5) 0.039(2) 1. 0
loop_
_atom_site_aniso_label
_atom_site_aniso_type_symbol
_atom_site_aniso_U_11
_atom_site_aniso_U_22
_atom_site_aniso_U_33
_atom_site_aniso_U_12
_atom_site_aniso_U_13
_atom_site_aniso_U_23
U1 U6+ 0.0160(1) 0.0145(2) 0.0117(2) -0.0029(1) 0.0001(1) -0.0047(1)
Mo1 Mo6+ 0.0149(3) 0.0202(3) 0.0194(4) 0.0004(2) 0.0002(2) -0.0081(3)
Mo2 Mo6+ 0.0236(3) 0.0170(3) 0.0141(3) 0.0019(3) -0.0027(3) -0.0066(3)
Mo3 Mo6+ 0.0169(3) 0.0231(3) 0.0146(3) -0.0026(3) -0.0020(3) -0.0029(3)
Mo4 Mo6+ 0.0219(3) 0.0322(4) 0.0151(3) -0.0105(3) 0.0032(3) -0.0109(3)
Na1 Na1+ 0.022(2) 0.031(2) 0.057(3) -0.006(1) 0.003(2) -0.026(2)
Na2 Na1+ 0.023(2) 0.037(2) 0.021(2) -0.006(1) 0.004(1) -0.009(1)
Na3 Na1+ 0.040(2) 0.033(2) 0.022(2) -0.002(1) -0.007(1) -0.006(1)
Na4 Na1+ 0.033(2) 0.059(2) 0.022(2) -0.009(2) -0.001(1) -0.005(2)
Na5 Na1+ 0.028(2) 0.051(2) 0.056(3) -0.002(2) -0.002(2) -0.039(2)
Na6 Na1+ 0.027(2) 0.040(2) 0.050(3) -0.013(2) -0.005(2) -0.005(2)
O1 O2- 0.028(3) 0.016(3) 0.024(3) -0.008(2) 0.005(2) -0.009(2)
O2 O2- 0.025(3) 0.014(2) 0.019(3) 0.001(2) 0.002(2) -0.006(2)
O3 O2- 0.022(3) 0.033(3) 0.017(3) 0.001(2) -0.003(2) -0.013(2)
O4 O2- 0.033(3) 0.018(3) 0.019(3) -0.008(2) 0.001(2) -0.002(2)
O5 O2- 0.017(3) 0.034(3) 0.018(3) 0.002(2) -0.004(2) -0.002(2)
O6 O2- 0.025(3) 0.034(3) 0.018(3) -0.005(2) 0.003(2) -0.006(2)
O7 O2- 0.020(3) 0.022(3) 0.041(4) -0.003(2) 0.002(3) -0.007(3)
O8 O2- 0.037(3) 0.041(4) 0.025(3) -0.010(3) 0.001(3) -0.021(3)
O9 O2- 0.039(4) 0.035(3) 0.029(3) 0.005(3) 0.001(3) -0.013(3)
O10 O2- 0.025(3) 0.023(3) 0.030(3) -0.002(2) 0.002(2) -0.007(2)
O11 O2- 0.031(3) 0.043(4) 0.034(4) -0.010(3) -0.001(3) -0.019(3)
O12 O2- 0.057(4) 0.050(4) 0.027(4) -0.024(3) 0.015(3) -0.011(3)
O13 O2- 0.049(4) 0.036(4) 0.024(3) 0.011(3) 0.003(3) -0.005(3)
O14 O2- 0.022(3) 0.043(4) 0.026(3) 0.002(3) -0.003(2) -0.013(3)
O15 O2- 0.054(4) 0.035(3) 0.023(3) -0.008(3) -0.017(3) -0.004(3)
O16 O2- 0.057(4) 0.019(3) 0.019(3) -0.005(3) 0.002(3) -0.002(2)
O17 O2- 0.020(3) 0.042(4) 0.027(3) -0.007(3) 0.000(2) 0.013(3)
O18 O2- 0.038(4) 0.052(4) 0.034(4) 0.011(3) -0.020(3) -0.026(3)
#End of TTdata_92826-ICSD