
#(C) 2019 by FIZ Karlsruhe - Leibniz Institute for Information Infrastructure.  All rights reserved.
data_92825-ICSD
_database_code_ICSD 92825
_audit_creation_date 2003-04-01
_chemical_name_systematic
'Hexasodium mue-oxo-tetrakis(molybdato)bis(dioxouranate)'
_chemical_formula_structural 'Na6 ((U O2)2 O (Mo O4)4)'
_chemical_formula_sum 'Mo4 Na6 O21 U2'
_exptl_crystal_density_diffrn 4.68
_publ_section_title

;
Crystal chemistry of uranyl molybdates.III.New structural themes in Na6 ((U
O2)2 O (Mo O4)4), Na6 ((U O2) (Mo O4)4) and K6 ((U O2)2 O (Mo O4)4)
;
loop_
_citation_id
_citation_journal_full
_citation_year
_citation_journal_volume
_citation_page_first
_citation_page_last
_citation_journal_id_ASTM
primary 'Canadian Mineralogist' 2001 39 197 206 CAMIA6
loop_
_publ_author_name
'Krivovichev, S.V.'
'Burns, P.C.'
_cell_length_a 7.637(2)
_cell_length_b 8.164(2)
_cell_length_c 8.746(2)
_cell_angle_alpha 72.329(5)
_cell_angle_beta 79.364(5)
_cell_angle_gamma 65.795(4)
_cell_volume 472.76
_cell_formula_units_Z 1
_symmetry_space_group_name_H-M 'P -1'
_symmetry_Int_Tables_number 2
_refine_ls_R_factor_all 0.041
loop_
_symmetry_equiv_pos_site_id
_symmetry_equiv_pos_as_xyz
1 '-x, -y, -z'
2 'x, y, z'
loop_
_atom_type_symbol
_atom_type_oxidation_number
U6+ 6
Mo6+ 6
Na1+ 1
O2- -2
loop_
_atom_site_label
_atom_site_type_symbol
_atom_site_symmetry_multiplicity
_atom_site_Wyckoff_symbol
_atom_site_fract_x
_atom_site_fract_y
_atom_site_fract_z
_atom_site_B_iso_or_equiv
_atom_site_occupancy
_atom_site_attached_hydrogens
U1 U6+ 2 i 0.21256(5) 0.92437(4) 0.31422(4) 0.0063(2) 1. 0
Mo1 Mo6+ 2 i 0.9372(1) 0.4135(1) 0.35573(9) 0.0075(2) 1. 0
Mo2 Mo6+ 2 i 0.4451(1) 0.2474(1) 0.0140(1) 0.0096(2) 1. 0
Na1 Na1+ 2 i 0.4562(7) 0.3998(6) 0.3463(6) 0.0182(9) 1. 0
Na2 Na1+ 2 i 0.2695(7) 0.0953(6) 0.6555(6) 0.0193(9) 1. 0
Na3 Na1+ 2 i -0.0551(7) 0.2465(6) -0.0116(5) 0.021(1) 1. 0
O1 O2- 2 i 0.393(1) 0.936(1) 0.4189(9) 0.017(2) 1. 0
O2 O2- 2 i 0.043(1) 0.908(1) 0.2028(9) 0.014(1) 1. 0
O3 O2- 2 i 0.549(1) 0.2974(9) 0.8109(8) 0.012(1) 1. 0
O4 O2- 2 i 0.855(1) 0.6369(9) 0.2286(8) 0.014(1) 1. 0
O5 O2- 2 i 0.324(1) 0.083(1) 0.0685(8) 0.015(1) 1. 0
O6 O2- 2 i 0.150(1) 0.358(1) 0.4448(9) 0.019(2) 1. 0
O7 O2- 2 i 0.745(1) 0.3670(9) 0.4956(8) 0.011(1) 1. 0
O8 O2- 2 i 0.004(1) 0.261(1) 0.2316(8) 0.015(1) 1. 0
O9 O2- 2 i 0.282(1) 0.454(1) 0.0514(9) 0.022(2) 1. 0
O10 O2- 2 i 0.621(1) 0.179(1) 0.147(1) 0.022(2) 1. 0
O11 O2- 1 b 0 0 0.5 0.051(5) 1. 0
loop_
_atom_site_aniso_label
_atom_site_aniso_type_symbol
_atom_site_aniso_U_11
_atom_site_aniso_U_22
_atom_site_aniso_U_33
_atom_site_aniso_U_12
_atom_site_aniso_U_13
_atom_site_aniso_U_23
U1 U6+ 0.0055(2) 0.0075(2) 0.0061(2) -0.0031(2) 0.0005(1) -0.0017(1)
Mo1 Mo6+ 0.0063(4) 0.0080(4) 0.0067(4) -0.0026(3) -0.0016(3) 0.0008(3)
Mo2 Mo6+ 0.0097(4) 0.0102(4) 0.0076(4) -0.0054(3) 0.0007(3) 0.0011(3)
Na1 Na1+ 0.016(2) 0.015(2) 0.023(2) -0.007(2) -0.001(2) -0.002(2)
Na2 Na1+ 0.019(2) 0.012(2) 0.021(2) -0.004(2) -0.002(2) 0.002(2)
Na3 Na1+ 0.032(3) 0.017(2) 0.014(2) -0.007(2) -0.004(2) -0.006(2)
O1 O2- 0.022(4) 0.009(3) 0.018(4) -0.003(3) -0.007(3) -0.001(3)
O2 O2- 0.011(3) 0.010(3) 0.023(4) -0.004(3) -0.005(3) -0.004(3)
O3 O2- 0.015(4) 0.011(3) 0.010(3) -0.007(3) 0.003(3) 0.000(3)
O4 O2- 0.016(4) 0.008(3) 0.016(3) -0.006(3) 0.000(3) 0.000(3)
O5 O2- 0.014(3) 0.016(3) 0.013(3) -0.009(3) 0.003(3) -0.001(3)
O6 O2- 0.013(4) 0.015(4) 0.025(4) -0.006(3) -0.003(3) 0.001(3)
O7 O2- 0.012(3) 0.012(3) 0.009(3) -0.009(3) 0.006(3) -0.002(3)
O8 O2- 0.021(4) 0.011(3) 0.014(3) -0.008(3) 0.001(3) -0.001(3)
O9 O2- 0.019(4) 0.017(4) 0.025(4) -0.005(3) 0.005(3) -0.007(3)
O10 O2- 0.021(4) 0.026(4) 0.021(4) -0.012(4) -0.013(3) 0.004(3)
O11 O2- 0.06(1) 0.017(6) 0.020(6) 0.024(6) 0.015(6) 0.010(5)
#End of TTdata_92825-ICSD