
#(C) 2019 by FIZ Karlsruhe - Leibniz Institute for Information Infrastructure.  All rights reserved.
data_92851-ICSD
_database_code_ICSD 92851
_audit_creation_date 2003-04-01
_audit_update_record 2012-02-01
_chemical_name_systematic 'Sodium bismuth vanadium oxide (0.96/3.04/2/10)'
_chemical_formula_structural '(Na0.96 Bi1.04) Bi2 V2 O10'
_chemical_formula_sum 'Bi3.04 Na0.96 O10 V2'
_chemical_name_structure_type NaBi3V2O10
_exptl_crystal_density_diffrn 6.38
_publ_section_title
'Structure of Na Bi3 V2 O10 and implications for ionic conductivity'
loop_
_citation_id
_citation_journal_full
_citation_year
_citation_journal_volume
_citation_page_first
_citation_page_last
_citation_journal_id_ASTM
primary 'Chemistry of Materials' 2001 13 3825 3826 CMATEX
loop_
_publ_author_name
'Bliesner, R.'
'Uma, S.'
'Yokochi, A.'
'Sleight, A.W.'
_cell_length_a 5.53637(13)
_cell_length_b 7.06286(17)
_cell_length_c 7.14188(17)
_cell_angle_alpha 107.8820(20)
_cell_angle_beta 112.0467(19)
_cell_angle_gamma 95.5497(22)
_cell_volume 239.12
_cell_formula_units_Z 1
_symmetry_space_group_name_H-M 'P -1'
_symmetry_Int_Tables_number 2
_refine_ls_R_factor_all 0.043
loop_
_symmetry_equiv_pos_site_id
_symmetry_equiv_pos_as_xyz
1 '-x, -y, -z'
2 'x, y, z'
loop_
_atom_type_symbol
_atom_type_oxidation_number
Bi3+ 3
Na1+ 1
V5+ 5
O2- -2
loop_
_atom_site_label
_atom_site_type_symbol
_atom_site_symmetry_multiplicity
_atom_site_Wyckoff_symbol
_atom_site_fract_x
_atom_site_fract_y
_atom_site_fract_z
_atom_site_B_iso_or_equiv
_atom_site_occupancy
_atom_site_attached_hydrogens
Bi1 Bi3+ 2 i 0.0816(6) 0.7598(4) 0.5288(5) 0.018 1. 0
Bi2 Bi3+ 2 i 0.3091(8) 0.3794(7) 0.2004(8) 0.03 0.521(1) 0
Na1 Na1+ 2 i 0.3091(8) 0.3794(7) 0.2004(8) 0.03 0.479(1) 0
V1 V5+ 2 i 0.3446 0.844 0.1446 0.013 1. 0
O1 O2- 2 i 0.1562(9) 0.6926(6) 0.2170(7) 0.023 1. 0
O2 O2- 2 i 0.1460(9) 0.8043(7) 0.8800(7) 0.026 1. 0
O3 O2- 2 i 0.2552(9) 0.4988(6) 0.5333(7) 0.029 1. 0
O4 O2- 2 i 0.5660(9) 0.8970(6) 0.6949(7) 0.024 1. 0
O5 O2- 2 i 0.377(1) 0.2362(8) 0.8333(9) 0.039 1. 0
loop_
_atom_site_aniso_label
_atom_site_aniso_type_symbol
_atom_site_aniso_U_11
_atom_site_aniso_U_22
_atom_site_aniso_U_33
_atom_site_aniso_U_12
_atom_site_aniso_U_13
_atom_site_aniso_U_23
Bi1 Bi3+ 0.026(2) 0.014(2) 0.014(2) 0.004(1) 0.008(1) 0.007(1)
Bi2 Bi3+ 0.020(3) 0.029(2) 0.037(3) 0.007(2) 0.018(2) 0.012(2)
Na1 Na1+ 0.020(3) 0.029(2) 0.037(3) 0.007(2) 0.018(2) 0.012(2)
V1 V5+ 0.013 0.01 0.018 0.007 -0.002 0.002
O1 O2- 0.032(3) 0.024(3) 0.014(3) 0.000(2) 0.018(2) 0.002(2)
O2 O2- 0.022(3) 0.032(3) 0.011(2) -0.006(2) -0.004(2) 0.012(2)
O3 O2- 0.013(2) 0.021(3) 0.045(3) 0.000(2) 0.011(2) 0.015(2)
O4 O2- 0.027(3) 0.013(2) 0.024(3) -0.002(2) 0.007(2) 0.002(2)
O5 O2- 0.027(3) 0.043(3) 0.038(3) 0.013(2) 0.012(3) 0.016(3)
#End of TTdata_92851-ICSD