
#(C) 2019 by FIZ Karlsruhe - Leibniz Institute for Information Infrastructure.  All rights reserved.
data_92903-ICSD
_database_code_ICSD 92903
_audit_creation_date 2003-04-01
_chemical_name_systematic 'Sodium tecto-alumosilicate *'
_chemical_formula_structural 'Na20 (Al20 Si76 O192)'
_chemical_formula_sum 'Al20 Na20 O192 Si76'
_chemical_name_structure_type Faujasite-(hex)-frame
_chemical_name_mineral 'Zeolite EMT'
_exptl_crystal_density_diffrn 1.37
_publ_section_title

;
Structural characterization of a new "core-shell" zeolite overgrowth system:
faujasite on micro-sized EMT crystals
;
loop_
_citation_id
_citation_journal_full
_citation_year
_citation_journal_volume
_citation_page_first
_citation_page_last
_citation_journal_id_ASTM
primary 'Crystal Engineering' 2001 4 253 267 CRYEF8
loop_
_publ_author_name
'Yonkeu, A.L.'
'Buschmann, V.'
'Miehe, G.'
'Fuess, H.'
'Goossens, A.M.'
'Martens, J.A.'
_cell_length_a 17.450(3)
_cell_length_b 17.450(3)
_cell_length_c 28.453(7)
_cell_angle_alpha 90
_cell_angle_beta 90
_cell_angle_gamma 120
_cell_volume 7503.25
_cell_formula_units_Z 1
_symmetry_space_group_name_H-M 'P 63/m m c'
_symmetry_Int_Tables_number 194
_refine_ls_R_factor_all 0.048
loop_
_symmetry_equiv_pos_site_id
_symmetry_equiv_pos_as_xyz
1 'x, x-y, -z+1/2'
2 '-x+y, y, -z+1/2'
3 '-y, -x, -z+1/2'
4 '-x+y, -x, -z+1/2'
5 '-y, x-y, -z+1/2'
6 'x, y, -z+1/2'
7 '-x, -x+y, z+1/2'
8 'x-y, -y, z+1/2'
9 'y, x, z+1/2'
10 'x-y, x, z+1/2'
11 'y, -x+y, z+1/2'
12 '-x, -y, z+1/2'
13 '-x, -x+y, -z'
14 'x-y, -y, -z'
15 'y, x, -z'
16 'x-y, x, -z'
17 'y, -x+y, -z'
18 '-x, -y, -z'
19 'x, x-y, z'
20 '-x+y, y, z'
21 '-y, -x, z'
22 '-x+y, -x, z'
23 '-y, x-y, z'
24 'x, y, z'
loop_
_atom_type_symbol
_atom_type_oxidation_number
Si4+ 4
Al3+ 3
Si4+ 4
Al3+ 3
Si4+ 4
Al3+ 3
Si4+ 4
Al3+ 3
O2- -2
Na1+ 1
loop_
_atom_site_label
_atom_site_type_symbol
_atom_site_symmetry_multiplicity
_atom_site_Wyckoff_symbol
_atom_site_fract_x
_atom_site_fract_y
_atom_site_fract_z
_atom_site_B_iso_or_equiv
_atom_site_occupancy
_atom_site_attached_hydrogens
Si1 Si4+ 24 l 0.384(2) 0.102(2) 0.017(1) 0.015 0.7917 0
Al1 Al3+ 24 l 0.384(2) 0.102(2) 0.017(1) 0.015 0.2083 0
Si2 Si4+ 24 l 0.427(2) 0.039(3) 0.105(2) 0.015 0.7917 0
Al2 Al3+ 24 l 0.427(2) 0.039(3) 0.105(2) 0.015 0.2083 0
Si3 Si4+ 24 l 0.496(2) 0.162(2) -0.073(2) 0.015 0.7917 0
Al3 Al3+ 24 l 0.496(2) 0.162(2) -0.073(2) 0.015 0.2083 0
Si4 Si4+ 24 l 0.482(2) 0.150(2) 0.1953(8) 0.015 0.7917 0
Al4 Al3+ 24 l 0.482(2) 0.150(2) 0.1953(8) 0.015 0.2083 0
O1 O2- 24 l 0.471(3) 0.134(4) -0.018(2) 0.025 1. 0
O2 O2- 12 i 0.306(4) 0 0 0.025 1. 0
O3 O2- 12 k 0.349(3) 0.1745(15) 0.008(3) 0.025 1. 0
O4 O2- 24 l 0.400(3) 0.098(3) 0.072(1) 0.025 1. 0
O5 O2- 24 l 0.417(3) 0.070(3) 0.159(2) 0.025 1. 0
O6 O2- 24 l 0.360(4) 0.433(5) 0.104(3) 0.025 1. 0
O7 O2- 12 k 0.534(3) 0.068(6) 0.097(3) 0.025 1. 0
O8 O2- 12 k 0.471(4) 0.2355(20) -0.094(3) 0.025 1. 0
O9 O2- 12 k 0.605(2) 0.210(4) -0.078(3) 0.025 1. 0
O10 O2- 12 k 0.490(6) 0.245(3) 0.179(3) 0.025 1. 0
O11 O2- 12 k 0.579(3) 0.158(6) 0.188(3) 0.025 1. 0
O12 O2- 12 j 0.452(4) 0.127(5) 0.25 0.025 1. 0
Na1 Na1+ 12 k 0.584(3) 0.168(5) 0.029(4) 0.03 0.85(7) 0
Na2 Na1+ 12 k 0.382(6) 0.191(3) 0.379(5) 0.03 0.62(6) 0
Na3 Na1+ 4 f 0.6667 0.3333 0.179(14) 0.03 0.33(12) 0
Na4 Na1+ 4 f 0.6667 0.3333 0.423(14) 0.03 0.32(10) 0
#End of TTdata_92903-ICSD