
#(C) 2019 by FIZ Karlsruhe - Leibniz Institute for Information Infrastructure.  All rights reserved.
data_93014-ICSD
_database_code_ICSD 93014
_audit_creation_date 2003-04-01
_chemical_name_systematic 'Barium sodium tecto-nonaborate'
_chemical_formula_structural 'Ba Na (B9 O15)'
_chemical_formula_sum 'B9 Ba1 Na1 O15'
_chemical_name_structure_type BaLiB9O15
_exptl_crystal_density_diffrn 2.67
_cell_measurement_temperature 298.
_publ_section_title

;
Synthesis and crystal structure of three M M' B9 O15 borates (M= Ba, Sr and
M'= Li; M= Ba and M'= Na)
;
loop_
_citation_id
_citation_journal_full
_citation_year
_citation_journal_volume
_citation_page_first
_citation_page_last
_citation_journal_id_ASTM
primary 'International Journal of Inorganic Materials' 2001 3 1015 1023 IJIMCR
loop_
_publ_author_name
'Penin, N.'
'Seguin, L.'
'Touboul, M.'
'Nowogrocki, G.'
_cell_length_a 11.0933(15)
_cell_length_b 11.0933(15)
_cell_length_c 17.392(3)
_cell_angle_alpha 90
_cell_angle_beta 90
_cell_angle_gamma 120
_cell_volume 1853.54
_cell_formula_units_Z 6
_symmetry_space_group_name_H-M 'R 3 c H'
_symmetry_Int_Tables_number 161
_refine_ls_R_factor_all 0.03
loop_
_symmetry_equiv_pos_site_id
_symmetry_equiv_pos_as_xyz
1 '-x+y, y, z+1/2'
2 'x, x-y, z+1/2'
3 '-y, -x, z+1/2'
4 '-x+y, -x, z'
5 '-y, x-y, z'
6 'x, y, z'
7 '-x+y+2/3, y+1/3, z+5/6'
8 'x+2/3, x-y+1/3, z+5/6'
9 '-y+2/3, -x+1/3, z+5/6'
10 '-x+y+2/3, -x+1/3, z+1/3'
11 '-y+2/3, x-y+1/3, z+1/3'
12 'x+2/3, y+1/3, z+1/3'
13 '-x+y+1/3, y+2/3, z+1/6'
14 'x+1/3, x-y+2/3, z+1/6'
15 '-y+1/3, -x+2/3, z+1/6'
16 '-x+y+1/3, -x+2/3, z+2/3'
17 '-y+1/3, x-y+2/3, z+2/3'
18 'x+1/3, y+2/3, z+2/3'
loop_
_atom_type_symbol
_atom_type_oxidation_number
Ba2+ 2
Na1+ 1
O2- -2
B3+ 3
loop_
_atom_site_label
_atom_site_type_symbol
_atom_site_symmetry_multiplicity
_atom_site_Wyckoff_symbol
_atom_site_fract_x
_atom_site_fract_y
_atom_site_fract_z
_atom_site_B_iso_or_equiv
_atom_site_occupancy
_atom_site_attached_hydrogens
Ba1 Ba2+ 6 a 0 0 0 0.017(1) 1. 0
Na1 Na1+ 6 a 0 0 0.2203(3) 0.015(1) 1. 0
O1 O2- 18 b 0.4809(6) 0.3290(10) 0.1142(4) 0.022(1) 1. 0
O2 O2- 18 b 0.2565(6) 0.2443(6) 0.0589(4) 0.018(1) 1. 0
O3 O2- 18 b 0.2037(14) 0.4286(7) 0.0670(3) 0.015(2) 1. 0
O4 O2- 18 b 0.3405(8) 0.4155(6) 0.1626(5) 0.017(1) 1. 0
O5 O2- 18 b 0.1070(14) 0.2334(7) 0.1590(3) 0.015(2) 1. 0
B1 B3+ 18 b 0.3859(12) 0.2641(12) 0.0538(5) 0.018(2) 1. 0
B2 B3+ 18 b 0.4511(11) 0.3965(11) 0.1714(5) 0.014(2) 1. 0
B3 B3+ 18 b 0.2261(10) 0.3310(15) 0.1224(6) 0.016(2) 1. 0
loop_
_atom_site_aniso_label
_atom_site_aniso_type_symbol
_atom_site_aniso_U_11
_atom_site_aniso_U_22
_atom_site_aniso_U_33
_atom_site_aniso_U_12
_atom_site_aniso_U_13
_atom_site_aniso_U_23
Ba1 Ba2+ 0.018(1) 0.018(1) 0.017(1) 0.009(1) 0. 0.
Na1 Na1+ 0.013(2) 0.013(2) 0.021(2) 0.006(1) 0. 0.
O1 O2- 0.021(4) 0.038(3) 0.014(2) 0.019(4) -0.012(3) -0.014(2)
O2 O2- 0.015(4) 0.022(4) 0.017(4) 0.010(3) -0.003(3) -0.011(2)
O3 O2- 0.021(5) 0.014(3) 0.009(3) 0.009(4) -0.002(4) 0.001(2)
O4 O2- 0.029(4) 0.021(4) 0.005(3) 0.015(4) -0.004(2) -0.006(3)
O5 O2- 0.025(6) 0.014(3) 0.007(3) 0.010(4) 0.009(4) 0.002(2)
B1 B3+ 0.023(8) 0.019(7) 0.016(6) 0.013(6) 0.010(4) 0.006(4)
B2 B3+ 0.014(6) 0.016(6) 0.009(5) 0.007(6) -0.001(4) -0.003(4)
B3 B3+ 0.022(7) 0.022(4) 0.006(3) 0.012(7) -0.002(4) -0.006(3)
#End of TTdata_93014-ICSD