
#(C) 2019 by FIZ Karlsruhe - Leibniz Institute for Information Infrastructure.  All rights reserved.
data_93365-ICSD
_database_code_ICSD 93365
_audit_creation_date 2003-04-01
_audit_update_record 2006-04-01
_chemical_name_systematic
'Neodymium sodium manganese(III) titanium oxide (1.33/0.66/0.66/1.34/6)'
_chemical_formula_structural '(Nd1.33 Na0.66) (Mn0.66 Ti1.34) O6'
_chemical_formula_sum 'Mn0.66 Na0.66 Nd1.33 O6 Ti1.34'
_chemical_name_structure_type Perovskite-GdFeO3
_exptl_crystal_density_diffrn 5.88
_publ_section_title
'Structural and electronic characterization of Nd1.33 Na0.66 Mn0.66 Ti1.34 O6'
loop_
_citation_id
_citation_journal_full
_citation_year
_citation_journal_volume
_citation_page_first
_citation_page_last
_citation_journal_id_ASTM
primary 'Journal of Alloys and Compounds' 2001 323 618 622 JALCEU
loop_
_publ_author_name
'Martin, P.'
'Lopez, M.L.'
'Ruiz, A.I.'
'Veiga, M.L.'
'Pico, C.'
_cell_length_a 5.438(8)
_cell_length_b 5.457(7)
_cell_length_c 7.680(9)
_cell_angle_alpha 90
_cell_angle_beta 90
_cell_angle_gamma 90
_cell_volume 227.91
_cell_formula_units_Z 2
_symmetry_space_group_name_H-M 'P b n m'
_symmetry_Int_Tables_number 62
_refine_ls_R_factor_all 0.067
loop_
_symmetry_equiv_pos_site_id
_symmetry_equiv_pos_as_xyz
1 '-x+1/2, y+1/2, z'
2 'x, y, -z+1/2'
3 'x+1/2, -y+1/2, z+1/2'
4 '-x, -y, -z'
5 'x+1/2, -y+1/2, -z'
6 '-x, -y, z+1/2'
7 '-x+1/2, y+1/2, -z+1/2'
8 'x, y, z'
loop_
_atom_type_symbol
_atom_type_oxidation_number
Na1+ 1
Nd3+ 3
Mn3+ 3
Ti4+ 4
O2- -2
loop_
_atom_site_label
_atom_site_type_symbol
_atom_site_symmetry_multiplicity
_atom_site_Wyckoff_symbol
_atom_site_fract_x
_atom_site_fract_y
_atom_site_fract_z
_atom_site_B_iso_or_equiv
_atom_site_occupancy
_atom_site_attached_hydrogens
Na1 Na1+ 4 c -0.002(3) -0.021(3) 0.25 0.356(2) 0.33 0
Nd1 Nd3+ 4 c -0.002(3) -0.021(3) 0.25 0.356(2) 0.665 0
Mn1 Mn3+ 4 b 0.5 0 0 0.099(1) 0.33 0
Ti1 Ti4+ 4 b 0.5 0 0 0.099(1) 0.67 0
O1 O2- 4 c -0.080(4) 0.516(5) 0.25 0.487(3) 1. 0
O2 O2- 8 d 0.740(5) 0.275(6) -0.025(4) 0.487(4) 1. 0
#End of TTdata_93365-ICSD