
#(C) 2019 by FIZ Karlsruhe - Leibniz Institute for Information Infrastructure.  All rights reserved.
data_93459-ICSD
_database_code_ICSD 93459
_audit_creation_date 2003-04-01
_chemical_name_systematic 'Dicesium sodium hexafluoroaluminate'
_chemical_formula_structural 'Cs2 Na (Al F6)'
_chemical_formula_sum 'Al1 Cs2 F6 Na1'
_chemical_name_structure_type Ba2NiTeO6
_chemical_name_mineral 'Elpasolite (Cr-doped)'
_exptl_crystal_density_diffrn 4.34
_cell_measurement_temperature 296.
_publ_section_title

;
Structural and vibrational study of chromium doped elpasolite crystals Cs2 Na
Al F6
;
loop_
_citation_id
_citation_journal_full
_citation_year
_citation_journal_volume
_citation_page_first
_citation_page_last
_citation_journal_id_ASTM
primary 'Journal of Chemical Physics' 2001 115 4300 4305 JCPSA6
loop_
_publ_author_name
'Bordallo, H.N.'
'Henning, R.W.'
'Sosman, L.P.'
'da Fonseca, R.J.M.'
'Dias Tavares, A.jr.'
'Hanif, K.M.'
'Strouse, G.F.'
_cell_length_a 6.1811(8)
_cell_length_b 6.1811(8)
_cell_length_c 29.845(6)
_cell_angle_alpha 90
_cell_angle_beta 90
_cell_angle_gamma 120
_cell_volume 987.49
_cell_formula_units_Z 6
_symmetry_space_group_name_H-M 'R -3 m H'
_symmetry_Int_Tables_number 166
_refine_ls_R_factor_all 0.032
loop_
_symmetry_equiv_pos_site_id
_symmetry_equiv_pos_as_xyz
1 'x-y, -y, -z'
2 '-x, -x+y, -z'
3 'y, x, -z'
4 'x-y, x, -z'
5 'y, -x+y, -z'
6 '-x, -y, -z'
7 '-x+y, y, z'
8 'x, x-y, z'
9 '-y, -x, z'
10 '-x+y, -x, z'
11 '-y, x-y, z'
12 'x, y, z'
13 'x-y+2/3, -y+1/3, -z+1/3'
14 '-x+2/3, -x+y+1/3, -z+1/3'
15 'y+2/3, x+1/3, -z+1/3'
16 'x-y+2/3, x+1/3, -z+1/3'
17 'y+2/3, -x+y+1/3, -z+1/3'
18 '-x+2/3, -y+1/3, -z+1/3'
19 '-x+y+2/3, y+1/3, z+1/3'
20 'x+2/3, x-y+1/3, z+1/3'
21 '-y+2/3, -x+1/3, z+1/3'
22 '-x+y+2/3, -x+1/3, z+1/3'
23 '-y+2/3, x-y+1/3, z+1/3'
24 'x+2/3, y+1/3, z+1/3'
25 'x-y+1/3, -y+2/3, -z+2/3'
26 '-x+1/3, -x+y+2/3, -z+2/3'
27 'y+1/3, x+2/3, -z+2/3'
28 'x-y+1/3, x+2/3, -z+2/3'
29 'y+1/3, -x+y+2/3, -z+2/3'
30 '-x+1/3, -y+2/3, -z+2/3'
31 '-x+y+1/3, y+2/3, z+2/3'
32 'x+1/3, x-y+2/3, z+2/3'
33 '-y+1/3, -x+2/3, z+2/3'
34 '-x+y+1/3, -x+2/3, z+2/3'
35 '-y+1/3, x-y+2/3, z+2/3'
36 'x+1/3, y+2/3, z+2/3'
loop_
_atom_type_symbol
_atom_type_oxidation_number
Al3+ 3
Na1+ 1
F1- -1
Cs1+ 1
loop_
_atom_site_label
_atom_site_type_symbol
_atom_site_symmetry_multiplicity
_atom_site_Wyckoff_symbol
_atom_site_fract_x
_atom_site_fract_y
_atom_site_fract_z
_atom_site_B_iso_or_equiv
_atom_site_occupancy
_atom_site_attached_hydrogens
Al1 Al3+ 3 a 0 0 0 0.0093 1. 0
Al2 Al3+ 3 b 0 0 0.5 0.0054 1. 0
Na1 Na1+ 6 c 0 0 0.0982(2) 0.0126 1. 0
F1 F1- 18 h 0.1360(5) 0.8640(5) 0.9638(1) 0.0154 1. 0
F2 F1- 18 h 0.1941(5) 0.8059(5) 0.1317(2) 0.0163 1. 0
Cs1 Cs1+ 6 c 0 0 0.78000(4) 0.0165 1. 0
Cs2 Cs1+ 6 c 0 0 0.62818(4) 0.0143 1. 0
loop_
_atom_site_aniso_label
_atom_site_aniso_type_symbol
_atom_site_aniso_U_11
_atom_site_aniso_U_22
_atom_site_aniso_U_33
_atom_site_aniso_U_12
_atom_site_aniso_U_13
_atom_site_aniso_U_23
Al1 Al3+ 0.005(2) 0.005(2) 0.017(3) 0.003(1) 0. 0.
Al2 Al3+ 0.002(2) 0.002(2) 0.013(3) 0.000(1) 0. 0.
Na1 Na1+ 0.010(2) 0.010(2) 0.018(3) 0.005(1) 0. 0.
F1 F1- 0.011(2) 0.011(2) 0.025(3) 0.007(2) 0.000(1) -0.000(1)
F2 F1- 0.017(2) 0.017(2) 0.020(3) 0.013(3) -0.004(1) 0.004(1)
Cs1 Cs1+ 0.0112(9) 0.0112(9) 0.027(1) 0.0056(4) 0. 0.
Cs2 Cs1+ 0.0010(9) 0.0010(9) 0.023(1) 0.0050(4) 0. 0.
#End of TTdata_93459-ICSD