
#(C) 2019 by FIZ Karlsruhe - Leibniz Institute for Information Infrastructure.  All rights reserved.
data_93528-ICSD
_database_code_ICSD 93528
_audit_creation_date 2003-04-01
_chemical_name_systematic
'Octasodium dodecahydroxooctadecaoxotetrazincooctagermanate dihydrate'
_chemical_formula_structural 'Na8 (Zn4 Ge8 O18 (O H)12) (H2 O)2'
_chemical_formula_sum 'H16 Ge8 Na8 O32 Zn4'
_exptl_crystal_density_diffrn 3.51
_publ_section_title

;
Na8 (Zn4 Ge8 O18 (O H)12) * 2(H2 O) : an interrupted-framework zincogermanate
built from (Ge O3 (O H)) and (Ge2 (O H)2) units
;
loop_
_citation_id
_citation_journal_full
_citation_year
_citation_journal_volume
_citation_page_first
_citation_page_last
_citation_journal_id_ASTM
primary 'Journal of Materials Chemistry' 2001 11 887 890 JMACEP
loop_
_publ_author_name
'Reisner, B.A.'
'Tripathi, A.'
'Parise, J.B.'
_cell_length_a 13.036(3)
_cell_length_b 8.728(2)
_cell_length_c 12.938(3)
_cell_angle_alpha 90
_cell_angle_beta 90
_cell_angle_gamma 90
_cell_volume 1472.06
_cell_formula_units_Z 2
_symmetry_space_group_name_H-M 'P b c n'
_symmetry_Int_Tables_number 60
_refine_ls_R_factor_all 0.06
loop_
_symmetry_equiv_pos_site_id
_symmetry_equiv_pos_as_xyz
1 'x, -y, z+1/2'
2 '-x+1/2, y+1/2, z'
3 'x+1/2, y+1/2, -z+1/2'
4 '-x, -y, -z'
5 '-x, y, -z+1/2'
6 'x+1/2, -y+1/2, -z'
7 '-x+1/2, -y+1/2, z+1/2'
8 'x, y, z'
loop_
_atom_type_symbol
_atom_type_oxidation_number
Ge4+ 4
Zn2+ 2
Na1+ 1
O2- -2
H1+ 1
loop_
_atom_site_label
_atom_site_type_symbol
_atom_site_symmetry_multiplicity
_atom_site_Wyckoff_symbol
_atom_site_fract_x
_atom_site_fract_y
_atom_site_fract_z
_atom_site_B_iso_or_equiv
_atom_site_occupancy
_atom_site_attached_hydrogens
Ge1 Ge4+ 8 d 0.3776(1) 0.1260(1) 0.5009(1) 0.009 1. 0
Ge2 Ge4+ 8 d 0.1204(1) 0.8821(1) 0.2513(1) 0.01 1. 0
Zn1 Zn2+ 8 d 0.2510(1) 0.1244(1) 0.1269(1) 0.01 1. 0
Na1 Na1+ 8 d 0.1491(2) 0.2569(2) 0.3749(2) 0.016 1. 0
Na2 Na1+ 4 a 0 0 0.5 0.02 1. 0
Na3 Na1+ 4 c 0 0.5104(4) 0.25 0.019 1. 0
O1 O2- 8 d 0.1312(3) -0.0203(5) 0.3729(3) 0.013 1. 0
O2 O2- 8 d 0.3690(3) 0.0298(5) 0.3792(3) 0.013 1. 0
O3 O2- 8 d 0.4992(3) 0.2199(5) 0.5006(3) 0.015 1. 0
O4 O2- 8 d 0.1213(3) 0.0188(4) 0.1555(3) 0.015 1. 0
O5 O2- 4 c 0 0.7881(6) 0.25 0.013 1. 0
O6 O2- 8 d 0.3764(4) -0.0094(4) 0.5977(3) 0.013 1. 0
O7 O2- 8 d 0.2830(3) 0.2647(4) 0.5010(3) 0.012 1. 0
O8 O2- 8 d 0.2857(3) 0.2422(4) 0.2502(3) 0.011 1. 0
O9 O2- 4 c 0 0.2392(7) 0.25 0.017 1. 0
H1 H1+ 8 d 0.167(7) -0.086(8) 0.420(6) 0.04(2) 1. 0
H2 H1+ 8 d 0.329(7) 0.091(8) 0.336(7) 0.04(3) 1. 0
H3 H1+ 8 d 0.542(6) 0.143(7) 0.462(6) 0.03(2) 1. 0
H4 H1+ 8 d 0.044(7) 0.133(7) 0.218(7) 0.05(3) 1. 0
loop_
_atom_site_aniso_label
_atom_site_aniso_type_symbol
_atom_site_aniso_U_11
_atom_site_aniso_U_22
_atom_site_aniso_U_33
_atom_site_aniso_U_12
_atom_site_aniso_U_13
_atom_site_aniso_U_23
Ge1 Ge4+ 0.011(1) 0.007(1) 0.011(1) 0.000(1) 0.000(1) 0.000(1)
Ge2 Ge4+ 0.009(1) 0.006(1) 0.011(1) 0.000(1) 0.000(1) 0.000(1)
Zn1 Zn2+ 0.011(1) 0.009(1) 0.010(1) 0.000(1) 0.000(1) 0.000(1)
Na1 Na1+ 0.017(1) 0.013(1) 0.019(1) 0.000(1) -0.001(1) -0.002(1)
Na2 Na1+ 0.022(2) 0.016(2) 0.021(2) 0.003(2) 0.005(2) 0.000(1)
Na3 Na1+ 0.021(2) 0.014(2) 0.022(2) 0. -0.009(2) 0.
O1 O2- 0.015(2) 0.009(2) 0.015(2) -0.003(2) -0.001(2) -0.001(2)
O2 O2- 0.016(2) 0.011(2) 0.013(2) -0.001(2) 0.000(2) -0.001(2)
O3 O2- 0.008(2) 0.012(2) 0.017(2) -0.003(2) -0.001(2) 0.005(2)
O4 O2- 0.011(2) 0.014(2) 0.018(2) -0.002(2) 0.000(2) -0.001(1)
O5 O2- 0.006(3) 0.011(3) 0.022(3) 0. 0.002(3) 0.
O6 O2- 0.012(2) 0.011(2) 0.018(2) -0.001(2) -0.001(2) 0.005(2)
O7 O2- 0.014(2) 0.010(2) 0.011(2) 0.005(2) -0.001(2) -0.001(2)
O8 O2- 0.011(2) 0.008(2) 0.014(2) -0.004(2) -0.001(2) -0.001(2)
O9 O2- 0.016(3) 0.014(3) 0.021(3) 0. 0.002(3) 0.
#End of TTdata_93528-ICSD