
#(C) 2019 by FIZ Karlsruhe - Leibniz Institute for Information Infrastructure.  All rights reserved.
data_93593-ICSD
_database_code_ICSD 93593
_audit_creation_date 2003-04-01
_chemical_name_systematic 'Disodium tricadmium bis(diphosphate(V))'
_chemical_formula_structural 'Na2 Cd3 (P2 O7)2'
_chemical_formula_sum 'Cd3 Na2 O14 P4'
_exptl_crystal_density_diffrn 4.25
_cell_measurement_temperature 301.
_publ_section_title

;
Identification of a new family of diphosphate compounds, A(I)2 B(II)3 (P2
O7)2: structures of Ag2 Co3 (P2 O7)2, Ag2 Mn3 (P2 O7)2, and Na2 Cd3 (P2 O7)2
;
loop_
_citation_id
_citation_journal_full
_citation_year
_citation_journal_volume
_citation_page_first
_citation_page_last
_citation_journal_id_ASTM
primary 'Journal of Chemical Crystallography' 2000 30 705 716 JCCYEV
loop_
_publ_author_name
'Bennazha, J.'
'Erragh, F.'
'Boukhari, A.'
'Holt, E.M.'
_cell_length_a 5.67(3)
_cell_length_b 7.08(4)
_cell_length_c 7.90(4)
_cell_angle_alpha 76.98(17)
_cell_angle_beta 82.5(2)
_cell_angle_gamma 67.78(18)
_cell_volume 285.67
_cell_formula_units_Z 1
_symmetry_space_group_name_H-M 'P -1'
_symmetry_Int_Tables_number 2
_refine_ls_R_factor_all 0.031
loop_
_symmetry_equiv_pos_site_id
_symmetry_equiv_pos_as_xyz
1 '-x, -y, -z'
2 'x, y, z'
loop_
_atom_type_symbol
_atom_type_oxidation_number
Cd2+ 2
Na1+ 1
P5+ 5
O2- -2
P5+ 5
O2- -2
loop_
_atom_site_label
_atom_site_type_symbol
_atom_site_symmetry_multiplicity
_atom_site_Wyckoff_symbol
_atom_site_fract_x
_atom_site_fract_y
_atom_site_fract_z
_atom_site_B_iso_or_equiv
_atom_site_occupancy
_atom_site_attached_hydrogens
Cd1 Cd2+ 1 a 0 0 0 0.0126(2) 1. 0
Cd2 Cd2+ 2 i 0.81314(5) 0.46105(4) 0.69202(3) 0.0123(2) 1. 0
Na1 Na1+ 2 i 0.4125(3) -.0040(2) 0.3185(2) 0.0170(3) 1. 0
P1 P5+ 2 i 0.3470(2) 0.32727(13) -.07605(11) 0.0089(2) 1. 0
O1 O2- 2 i 0.3143(5) 0.3036(4) 0.1182(3) 0.0132(5) 1. 0
O2 O2- 2 i 0.6282(6) 0.2368(5) 0.8578(4) 0.0133(6) 1. 0
O3 O2- 2 i 0.1849(6) 0.2388(5) 0.8447(4) 0.0117(6) 1. 0
O4 O2- 2 i 0.2551(6) 0.5716(4) 0.88507(3) 0.0125(5) 1. 0
P2 P5+ 2 i 0.1987(2) 0.73339(14) 0.66548(12) 0.0093(2) 1. 0
O5 O2- 2 i 0.0417(6) 0.9378(4) 0.7215(4) 0.0152(5) 1. 0
O6 O2- 2 i 0.4523(6) 0.7310(5) 0.5721(4) 0.0142(6) 1. 0
O7 O2- 2 i 0.0518(6) 0.6580(5) 0.5622(4) 0.0148(6) 1. 0
loop_
_atom_site_aniso_label
_atom_site_aniso_type_symbol
_atom_site_aniso_U_11
_atom_site_aniso_U_22
_atom_site_aniso_U_33
_atom_site_aniso_U_12
_atom_site_aniso_U_13
_atom_site_aniso_U_23
Cd1 Cd2+ 0.0154(3) 0.0122(2) 0.0107(3) -0.0063(2) -0.0010(2) -0.00051(2)
Cd2 Cd2+ 0.0138(2) 0.0129(2) 0.0108(2) -0.00636(14) 0.00026(13) -0.00144(13)
Na1 Na1+ 0.0279(9) 0.0128(7) 0.0111(7) -0.0090(6) -0.0050(6) 0.0016(5)
P1 P5+ 0.0108(4) 0.0083(4) 0.0080(4) -0.0044(3) -0.0003(3) -0.0009(3)
O1 O2- 0.0188(12) 0.0126(11) 0.0096(11) -0.0077(10) 0.0006(9) -0.0018(9)
O2 O2- 0.0125(13) 0.0130(13) 0.0114(14) -0.0026(11) 0.0022(11) -0.0018(10)
O3 O2- 0.0156(14) 0.0100(12) 0.0115(14) -0.0070(10) -0.0018(10) -0.0008(10)
O4 O2- 0.0167(12) 0.0119(11) 0.0098(10) -0.0066(10) -0.0013(9) -0.0011(8)
P2 P5+ 0.0121(4) 0.0081(4) 0.0084(4) -0.0044(3) 0.0000(3) -0.0020(3)
O5 O2- 0.0215(14) 0.0069(11) 0.0140(12) -0.0014(10) 0.0001(10) -0.0028(9)
O6 O2- 0.0124(12) 0.0168(12) 0.0117(12) -0.0051(10) 0.0010(10) -0.0007(10)
O7 O2- 0.0209(15) 0.0192(14) 0.0117(13) -0.0147(12) 0.0006(11) -0.0048(10)
#End of TTdata_93593-ICSD