
#(C) 2019 by FIZ Karlsruhe - Leibniz Institute for Information Infrastructure.  All rights reserved.
data_93759-ICSD
_database_code_ICSD 93759
_audit_creation_date 2003-04-01
_chemical_name_systematic 'Sodium samarium hexathiodiphosphate(IV)'
_chemical_formula_structural 'Na Sm (P2 S6)'
_chemical_formula_sum 'Na1 P2 S6 Sm1'
_exptl_crystal_density_diffrn 3.26
_publ_section_title

;
Structure modification on quaternary rare earth thiophosphates: Na Yb P2 S6,
Na Sm P2 S6 and K Sm P2 S7
;
loop_
_citation_id
_citation_journal_full
_citation_year
_citation_journal_volume
_citation_page_first
_citation_page_last
_citation_journal_id_ASTM
primary 'Journal of Solid State Chemistry' 2001 160 195 204 JSSCBI
loop_
_publ_author_name
'Goh, E.-Y.'
'Kim, E.-J.'
'Kim, S.-J.'
_cell_length_a 11.0717(10)
_cell_length_b 7.2994(11)
_cell_length_c 11.579(3)
_cell_angle_alpha 90
_cell_angle_beta 111.30(2)
_cell_angle_gamma 90
_cell_volume 871.86
_cell_formula_units_Z 4
_symmetry_space_group_name_H-M 'P 1 21/a 1'
_symmetry_Int_Tables_number 14
_refine_ls_R_factor_all 0.044
loop_
_symmetry_equiv_pos_site_id
_symmetry_equiv_pos_as_xyz
1 'x+1/2, -y+1/2, z'
2 '-x, -y, -z'
3 '-x+1/2, y+1/2, -z'
4 'x, y, z'
loop_
_atom_type_symbol
_atom_type_oxidation_number
Na1+ 1
Sm3+ 3
P4+ 4
S2- -2
loop_
_atom_site_label
_atom_site_type_symbol
_atom_site_symmetry_multiplicity
_atom_site_Wyckoff_symbol
_atom_site_fract_x
_atom_site_fract_y
_atom_site_fract_z
_atom_site_B_iso_or_equiv
_atom_site_occupancy
_atom_site_attached_hydrogens
Na1 Na1+ 4 e 0.3791(5) 0.3910(5) 0.6397(4) 0.032(1) 1. 0
Sm1 Sm3+ 4 e 0.4094(1) 0.1099(1) 0.1539(1) 0.012(1) 1. 0
P1 P4+ 4 e 0.7507(2) 0.1145(3) 0.3073(2) 0.011(1) 1. 0
P2 P4+ 4 e 0.2495(2) 0.1036(2) 0.8232(2) 0.010(1) 1. 0
S1 S2- 4 e 0.6615(2) 0.0068(3) 0.4121(2) 0.017(1) 1. 0
S2 S2- 4 e 0.1857(2) 0.9803(3) 0.9491(2) 0.014(1) 1. 0
S3 S2- 4 e 0.4356(2) 0.1877(3) 0.907(1) 0.013(1) 1. 0
S4 S2- 4 e 0.4349(2) 0.2996(3) 0.3809(2) 0.015(1) 1. 0
S5 S2- 4 e 0.3667(2) 0.7971(3) 0.2840(2) 0.015(1) 1. 0
S6 S2- 4 e 0.1453(2) 0.1853(3) 0.1930(2) 0.014(1) 1. 0
#End of TTdata_93759-ICSD