
#(C) 2019 by FIZ Karlsruhe - Leibniz Institute for Information Infrastructure.  All rights reserved.
data_93758-ICSD
_database_code_ICSD 93758
_audit_creation_date 2003-04-01
_audit_update_record 2011-02-01
_chemical_name_systematic 'Sodium ytterbium hexathiodiphosphate(IV)'
_chemical_formula_structural 'Na Yb (P2 S6)'
_chemical_formula_sum 'Na1 P2 S6 Yb1'
_chemical_name_structure_type NaYbP2S6
_exptl_crystal_density_diffrn 3.43
_publ_section_title

;
Structure modification on quaternary rare earth thiophosphates: Na Yb P2 S6,
Na Sm P2 S6 and K Sm P2 S7
;
loop_
_citation_id
_citation_journal_full
_citation_year
_citation_journal_volume
_citation_page_first
_citation_page_last
_citation_journal_id_ASTM
primary 'Journal of Solid State Chemistry' 2001 160 195 204 JSSCBI
loop_
_publ_author_name
'Goh, E.-Y.'
'Kim, E.-J.'
'Kim, S.-J.'
_cell_length_a 6.8241(10)
_cell_length_b 7.0371(10)
_cell_length_c 9.107(2)
_cell_angle_alpha 87.17(2)
_cell_angle_beta 87.62(2)
_cell_angle_gamma 88.30(2)
_cell_volume 436.26
_cell_formula_units_Z 2
_symmetry_space_group_name_H-M 'P -1'
_symmetry_Int_Tables_number 2
_refine_ls_R_factor_all 0.015
loop_
_symmetry_equiv_pos_site_id
_symmetry_equiv_pos_as_xyz
1 '-x, -y, -z'
2 'x, y, z'
loop_
_atom_type_symbol
_atom_type_oxidation_number
Na1+ 1
Yb3+ 3
P4+ 4
S2- -2
loop_
_atom_site_label
_atom_site_type_symbol
_atom_site_symmetry_multiplicity
_atom_site_Wyckoff_symbol
_atom_site_fract_x
_atom_site_fract_y
_atom_site_fract_z
_atom_site_B_iso_or_equiv
_atom_site_occupancy
_atom_site_attached_hydrogens
Na1 Na1+ 2 i 0.4683(3) 0.3977(3) 0.2677(3) 0.035(1) 1. 0
Yb1 Yb3+ 2 i 0.0273(1) 0.8814(1) 0.2559(1) 0.013(1) 1. 0
P1 P4+ 2 i 0.0659(2) 0.6087(2) 0.5645(1) 0.011(1) 1. 0
P2 P4+ 2 i 0.3500(2) 0.9640(2) 0.9731(1) 0.011(1) 1. 0
S1 S2- 2 i 0.6530(2) 0.0268(2) 0.2489(1) 0.016(1) 1. 0
S2 S2- 2 i 0.8762(2) 0.5191(2) 0.2402(1) 0.016(1) 1. 0
S3 S2- 2 i 0.1464(2) 0.1807(1) 0.4405(1) 0.014(1) 1. 0
S4 S2- 2 i 0.2977(2) 0.7041(2) 0.4410(1) 0.014(1) 1. 0
S5 S2- 2 i 0.1671(2) 0.1665(2) 0.0575(1) 0.016(1) 1. 0
S6 S2- 2 i 0.2971(2) 0.7084(2) 0.0707(1) 0.016(1) 1. 0
#End of TTdata_93758-ICSD