
#(C) 2019 by FIZ Karlsruhe - Leibniz Institute for Information Infrastructure.  All rights reserved.
data_93782-ICSD
_database_code_ICSD 93782
_audit_creation_date 2003-04-01
_chemical_name_systematic 'Sodium calcium germanate fluoride (0.87/2.13/1/1)'
_chemical_formula_structural '(Na0.87 Ca2.13) (Ge O4) F'
_chemical_formula_sum 'Ca2.13 F1 Ge1 Na0.87 O4'
_chemical_name_structure_type Ca2NaFSiO4
_exptl_crystal_density_diffrn 3.48
_publ_section_title
'Synthesis and structure of a new germanate fluoride: Na Ca2 Ge O4 F'
loop_
_citation_id
_citation_journal_full
_citation_year
_citation_journal_volume
_citation_page_first
_citation_page_last
_citation_journal_id_ASTM
primary 'Journal of Solid State Chemistry' 2001 160 33 38 JSSCBI
loop_
_publ_author_name
'Schneemeyer, L.F.'
'Guterman, L.'
'Siegrist, T.'
'Kowach, G.R.'
_cell_length_a 5.362(2)
_cell_length_b 7.328(3)
_cell_length_c 12.681(4)
_cell_angle_alpha 90
_cell_angle_beta 90
_cell_angle_gamma 90
_cell_volume 498.27
_cell_formula_units_Z 4
_symmetry_space_group_name_H-M 'P n m a'
_symmetry_Int_Tables_number 62
_refine_ls_R_factor_all 0.044
loop_
_symmetry_equiv_pos_site_id
_symmetry_equiv_pos_as_xyz
1 'x+1/2, y, -z+1/2'
2 'x, -y+1/2, z'
3 '-x+1/2, y+1/2, z+1/2'
4 '-x, -y, -z'
5 '-x+1/2, -y, z+1/2'
6 '-x, y+1/2, -z'
7 'x+1/2, -y+1/2, -z+1/2'
8 'x, y, z'
loop_
_atom_type_symbol
_atom_type_oxidation_number
Ge4+ 4
O2- -2
F1- -1
Ca2+ 2
Na1+ 1
Ca2+ 2
Na1+ 1
loop_
_atom_site_label
_atom_site_type_symbol
_atom_site_symmetry_multiplicity
_atom_site_Wyckoff_symbol
_atom_site_fract_x
_atom_site_fract_y
_atom_site_fract_z
_atom_site_B_iso_or_equiv
_atom_site_occupancy
_atom_site_attached_hydrogens
Ge1 Ge4+ 4 c 0.8028(3) 0.75 0.08338(10) . 1. 0
O1 O2- 4 c 0.1299(17) 0.75 0.0814(7) . 1. 0
O2 O2- 8 d 0.7051(13) 0.5545(9) 0.1486(5) . 1. 0
O3 O2- 4 c 0.3013(20) 0.25 0.0484(6) . 1. 0
F1 F1- 4 c 0.0008(14) 0.25 0.2405(6) . 1. 0
Ca1 Ca2+ 8 d 0.2636(4) 0.4900(3) 0.17030(15) . 0.70(2) 0
Na1 Na1+ 8 d 0.2636(4) 0.4900(3) 0.17030(15) . 0.30(2) 0
Ca2 Ca2+ 4 c 0.7338(6) 0.25 0.09083(22) . 0.73(2) 0
Na2 Na1+ 4 c 0.7338(6) 0.25 0.09083(22) . 0.27(2) 0
loop_
_atom_site_aniso_label
_atom_site_aniso_type_symbol
_atom_site_aniso_U_11
_atom_site_aniso_U_22
_atom_site_aniso_U_33
_atom_site_aniso_U_12
_atom_site_aniso_U_13
_atom_site_aniso_U_23
Ge1 Ge4+ 0.0248(10) 0.0119(8) 0.0060(8) 0. 0.0001(6) 0.
O1 O2- 0.027(5) 0.027(5) 0.017(4) 0. 0.003(4) 0.
O2 O2- 0.056(4) 0.018(3) 0.015(3) 0.009(3) -0.005(3) 0.006(3)
O3 O2- 0.051(6) 0.026(5) 0.001(4) 0. -0.001(4) 0.
F1 F1- 0.027(4) 0.023(4) 0.020(4) 0. 0.003(4) 0.
Ca1 Ca2+ 0.0349(13) 0.0175(11) 0.0090(10) 0.0000(10) 0.0010(9) -0.0007(8)
Na1 Na1+ 0.0349(13) 0.0175(11) 0.0090(10) 0.0000(10) 0.0010(9) -0.0007(8)
Ca2 Ca2+ 0.0336(19) 0.0149(15) 0.0078(14) 0. -0.0007(14) 0.
Na2 Na1+ 0.0336(19) 0.0149(15) 0.0078(14) 0. -0.0007(14) 0.
#End of TTdata_93782-ICSD