
#(C) 2019 by FIZ Karlsruhe - Leibniz Institute for Information Infrastructure.  All rights reserved.
data_93959-ICSD
_database_code_ICSD 93959
_audit_creation_date 2003-04-01
_chemical_name_systematic 'Sodium tecto-alumosilicate *'
_chemical_formula_structural 'Na97.8 (Al92 Si100 O384)'
_chemical_formula_sum 'Al92 Na97.8 O384 Si100'
_chemical_name_structure_type Faujasite-Fd3--frame
_chemical_name_mineral 'Zeolite X (Na-vapour adsorbed, dehydrated)'
_exptl_crystal_density_diffrn 1.43
_publ_section_title 'Verification of linear Na3(2+) clusters in zeolite X'
loop_
_citation_id
_citation_journal_full
_citation_year
_citation_journal_volume
_citation_page_first
_citation_page_last
_citation_journal_id_ASTM
primary 'Microporous and Mesoporous Materials' 2001 46 111 113 MIMMFJ
loop_
_publ_author_name
'Zhu, L.'
'Seff, K.'
_cell_length_a 25.125(3)
_cell_length_b 25.125(3)
_cell_length_c 25.125(3)
_cell_angle_alpha 90
_cell_angle_beta 90
_cell_angle_gamma 90
_cell_volume 15860.55
_cell_formula_units_Z 1
_symmetry_space_group_name_H-M 'F d -3 Z'
_symmetry_Int_Tables_number 203
loop_
_symmetry_equiv_pos_site_id
_symmetry_equiv_pos_as_xyz
1 '-z, x+3/4, y+3/4'
2 'z+3/4, x+3/4, -y'
3 'z+3/4, -x, y+3/4'
4 '-z, -x, -y'
5 'y+3/4, -z, x+3/4'
6 '-y, z+3/4, x+3/4'
7 'y+3/4, z+3/4, -x'
8 '-y, -z, -x'
9 'x+3/4, y+3/4, -z'
10 'x+3/4, -y, z+3/4'
11 '-x, y+3/4, z+3/4'
12 '-x, -y, -z'
13 'z, -x+1/4, -y+1/4'
14 '-z+1/4, -x+1/4, y'
15 '-z+1/4, x, -y+1/4'
16 'z, x, y'
17 '-y+1/4, z, -x+1/4'
18 'y, -z+1/4, -x+1/4'
19 '-y+1/4, -z+1/4, x'
20 'y, z, x'
21 '-x+1/4, -y+1/4, z'
22 '-x+1/4, y, -z+1/4'
23 'x, -y+1/4, -z+1/4'
24 'x, y, z'
25 '-z, x+1/4, y+1/4'
26 'z+3/4, x+1/4, -y+1/2'
27 'z+3/4, -x+1/2, y+1/4'
28 '-z, -x+1/2, -y+1/2'
29 'y+3/4, -z+1/2, x+1/4'
30 '-y, z+1/4, x+1/4'
31 'y+3/4, z+1/4, -x+1/2'
32 '-y, -z+1/2, -x+1/2'
33 'x+3/4, y+1/4, -z+1/2'
34 'x+3/4, -y+1/2, z+1/4'
35 '-x, y+1/4, z+1/4'
36 '-x, -y+1/2, -z+1/2'
37 'z, -x+3/4, -y+3/4'
38 '-z+1/4, -x+3/4, y+1/2'
39 '-z+1/4, x+1/2, -y+3/4'
40 'z, x+1/2, y+1/2'
41 '-y+1/4, z+1/2, -x+3/4'
42 'y, -z+3/4, -x+3/4'
43 '-y+1/4, -z+3/4, x+1/2'
44 'y, z+1/2, x+1/2'
45 '-x+1/4, -y+3/4, z+1/2'
46 '-x+1/4, y+1/2, -z+3/4'
47 'x, -y+3/4, -z+3/4'
48 'x, y+1/2, z+1/2'
49 '-z+1/2, x+3/4, y+1/4'
50 'z+1/4, x+3/4, -y+1/2'
51 'z+1/4, -x, y+1/4'
52 '-z+1/2, -x, -y+1/2'
53 'y+1/4, -z, x+1/4'
54 '-y+1/2, z+3/4, x+1/4'
55 'y+1/4, z+3/4, -x+1/2'
56 '-y+1/2, -z, -x+1/2'
57 'x+1/4, y+3/4, -z+1/2'
58 'x+1/4, -y, z+1/4'
59 '-x+1/2, y+3/4, z+1/4'
60 '-x+1/2, -y, -z+1/2'
61 'z+1/2, -x+1/4, -y+3/4'
62 '-z+3/4, -x+1/4, y+1/2'
63 '-z+3/4, x, -y+3/4'
64 'z+1/2, x, y+1/2'
65 '-y+3/4, z, -x+3/4'
66 'y+1/2, -z+1/4, -x+3/4'
67 '-y+3/4, -z+1/4, x+1/2'
68 'y+1/2, z, x+1/2'
69 '-x+3/4, -y+1/4, z+1/2'
70 '-x+3/4, y, -z+3/4'
71 'x+1/2, -y+1/4, -z+3/4'
72 'x+1/2, y, z+1/2'
73 '-z+1/2, x+1/4, y+3/4'
74 'z+1/4, x+1/4, -y'
75 'z+1/4, -x+1/2, y+3/4'
76 '-z+1/2, -x+1/2, -y'
77 'y+1/4, -z+1/2, x+3/4'
78 '-y+1/2, z+1/4, x+3/4'
79 'y+1/4, z+1/4, -x'
80 '-y+1/2, -z+1/2, -x'
81 'x+1/4, y+1/4, -z'
82 'x+1/4, -y+1/2, z+3/4'
83 '-x+1/2, y+1/4, z+3/4'
84 '-x+1/2, -y+1/2, -z'
85 'z+1/2, -x+3/4, -y+1/4'
86 '-z+3/4, -x+3/4, y'
87 '-z+3/4, x+1/2, -y+1/4'
88 'z+1/2, x+1/2, y'
89 '-y+3/4, z+1/2, -x+1/4'
90 'y+1/2, -z+3/4, -x+1/4'
91 '-y+3/4, -z+3/4, x'
92 'y+1/2, z+1/2, x'
93 '-x+3/4, -y+3/4, z'
94 '-x+3/4, y+1/2, -z+1/4'
95 'x+1/2, -y+3/4, -z+1/4'
96 'x+1/2, y+1/2, z'
loop_
_atom_type_symbol
_atom_type_oxidation_number
Si4+ 4
Al3+ 3
Si4+ 4
O2- -2
Na1+ 1
Na0+ 0.85
loop_
_atom_site_label
_atom_site_type_symbol
_atom_site_symmetry_multiplicity
_atom_site_Wyckoff_symbol
_atom_site_fract_x
_atom_site_fract_y
_atom_site_fract_z
_atom_site_B_iso_or_equiv
_atom_site_occupancy
_atom_site_attached_hydrogens
Si1 Si4+ 96 g -0.0547(1) 0.1254(1) 0.0352(1) . 1. 0
Al1 Al3+ 96 g -0.0552(1) 0.0359(1) 0.1247(1) . 0.9583 0
Si2 Si4+ 96 g -0.0552(1) 0.0359(1) 0.1247(1) . 0.0417 0
O1 O2- 96 g 0.8909(2) 0.0002(2) 0.1069(2) . 1. 0
O2 O2- 96 g -0.0021(2) -0.0023(2) 0.1409(2) . 1. 0
O3 O2- 96 g -0.0348(2) 0.0747(3) 0.0725(2) . 1. 0
O4 O2- 96 g -0.0692(2) 0.0716(2) 0.1798(2) . 1. 0
Na1 Na1+ 32 e 0.0476(2) 0.0476(2) 0.0476(2) . 0.847(19) 0
Na2 Na1+ 32 e 0.2287(2) 0.2287(2) 0.2287(2) . 1. 0
Na3 Na0+ 96 g 0.4102(12) 0.0511(13) 0.0558(13) 0.129(17) 0.232(15) 0
Na4 Na0+ 96 g 0.4001(33) 0.1481(33) 0.1089(34) 0.129(17) 0.052(9) 0
Na5 Na0+ 16 d 0.5 0.5 0.5 0.128(13) 0.713(37) 0
loop_
_atom_site_aniso_label
_atom_site_aniso_type_symbol
_atom_site_aniso_U_11
_atom_site_aniso_U_22
_atom_site_aniso_U_33
_atom_site_aniso_U_12
_atom_site_aniso_U_13
_atom_site_aniso_U_23
Si1 Si4+ 0.022(1) 0.023(1) 0.018(1) -0.005(1) 0.003(1) -0.002(1)
Al1 Al3+ 0.023(1) 0.015(1) 0.019(1) 0.001(1) -0.002(1) -0.003(1)
Si2 Si4+ 0.023(1) 0.015(1) 0.019(1) 0.001(1) -0.002(1) -0.003(1)
O1 O2- 0.034(4) 0.037(4) 0.026(3) -0.011(3) 0.002(3) -0.005(3)
O2 O2- 0.024(3) 0.032(3) 0.034(4) 0.012(3) -0.014(3) -0.010(3)
O3 O2- 0.037(4) 0.039(4) 0.032(4) -0.002(3) -0.002(3) 0.006(3)
O4 O2- 0.033(4) 0.027(4) 0.032(4) -0.001(3) -0.004(3) -0.015(3)
Na1 Na1+ 0.047(3) 0.047(3) 0.047(3) 0.019(3) 0.019(3) 0.019(3)
Na2 Na1+ 0.047(3) 0.047(3) 0.047(3) 0.014(2) 0.014(2) 0.014(2)
#End of TTdata_93959-ICSD