
#(C) 2019 by FIZ Karlsruhe - Leibniz Institute for Information Infrastructure.  All rights reserved.
data_93968-ICSD
_database_code_ICSD 93968
_audit_creation_date 2003-04-01
_chemical_name_systematic 'Tetrasodium dioxouranium(VI) tricarbonate'
_chemical_formula_structural 'Na4 (U O2) (C O3)3'
_chemical_formula_sum 'C3 Na4 O11 U1'
_exptl_crystal_density_diffrn 3.71
_publ_section_title

;
The crystal structure of Na4 (U O2) (C O3)3 and its relationship to
schroekingerite
;
loop_
_citation_id
_citation_journal_full
_citation_year
_citation_journal_volume
_citation_page_first
_citation_page_last
_citation_journal_id_ASTM
primary 'Mineralogical Magazine' 2001 65 297 304 MNLMBB
loop_
_publ_author_name
'Li, Y.-P.'
'Krivovichev, S.V.'
'Burns, P.C.'
_cell_length_a 9.3417(6)
_cell_length_b 9.3417(6)
_cell_length_c 12.824(1)
_cell_angle_alpha 90
_cell_angle_beta 90
_cell_angle_gamma 120
_cell_volume 969.18
_cell_formula_units_Z 4
_symmetry_space_group_name_H-M 'P -3 c 1'
_symmetry_Int_Tables_number 165
_refine_ls_R_factor_all 0.02
loop_
_symmetry_equiv_pos_site_id
_symmetry_equiv_pos_as_xyz
1 'x-y, -y, -z+1/2'
2 '-x, -x+y, -z+1/2'
3 'y, x, -z+1/2'
4 'x-y, x, -z'
5 'y, -x+y, -z'
6 '-x, -y, -z'
7 '-x+y, y, z+1/2'
8 'x, x-y, z+1/2'
9 '-y, -x, z+1/2'
10 '-x+y, -x, z'
11 '-y, x-y, z'
12 'x, y, z'
loop_
_atom_type_symbol
_atom_type_oxidation_number
U6+ 6
Na1+ 1
O2- -2
C4+ 4
loop_
_atom_site_label
_atom_site_type_symbol
_atom_site_symmetry_multiplicity
_atom_site_Wyckoff_symbol
_atom_site_fract_x
_atom_site_fract_y
_atom_site_fract_z
_atom_site_B_iso_or_equiv
_atom_site_occupancy
_atom_site_attached_hydrogens
U1 U6+ 4 d 0.6667 0.3333 0.1303(1) 0.011(1) 1. 0
Na1 Na1+ 2 a 0 0 0.25 0.023(1) 1. 0
Na2 Na1+ 2 b 0 0 0 0.022(1) 1. 0
Na3 Na1+ 12 g 0.8769(3) 0.3076(3) 0.3764(2) 0.027(1) 1. 0
O1 O2- 4 d 0.6667 0.3333 0.2718(4) 0.020(1) 1. 0
O2 O2- 4 d 0.6667 0.3333 -0.0106(4) 0.023(1) 1. 0
O3 O2- 12 g 0.9651(4) 0.7833(4) 0.3784(3) 0.021(1) 1. 0
O4 O2- 12 g 0.0460(4) 0.5959(5) 0.3817(3) 0.023(1) 1. 0
O5 O2- 12 g 0.1471(4) 0.3765(5) 0.3563(3) 0.026(1) 1. 0
C1 C4+ 12 g 0.0733(7) 0.7444(7) 0.3723(4) 0.017(1) 1. 0
loop_
_atom_site_aniso_label
_atom_site_aniso_type_symbol
_atom_site_aniso_U_11
_atom_site_aniso_U_22
_atom_site_aniso_U_33
_atom_site_aniso_U_12
_atom_site_aniso_U_13
_atom_site_aniso_U_23
U1 U6+ 0.010(1) 0.010(1) 0.013(1) 0.005(1) 0. 0.
Na1 Na1+ 0.022(1) 0.022(1) 0.024(2) 0.011(1) 0. 0.
Na2 Na1+ 0.023(1) 0.023(1) 0.020(2) 0.011(1) 0. 0.
Na3 Na1+ 0.013(1) 0.016(1) 0.049(1) 0.006(1) 0.001(1) 0.005(1)
O1 O2- 0.022(2) 0.022(2) 0.017(3) 0.011(1) 0. 0.
O2 O2- 0.030(2) 0.030(2) 0.009(3) 0.015(1) 0. 0.
O3 O2- 0.015(2) 0.019(2) 0.033(2) 0.012(2) -0.002(2) -0.003(2)
O4 O2- 0.010(2) 0.010(2) 0.049(3) 0.005(2) 0.006(2) 0.006(2)
O5 O2- 0.012(2) 0.015(2) 0.055(3) 0.010(2) 0.000(2) -0.002(2)
C1 C4+ 0.011(3) 0.013(3) 0.022(3) 0.002(2) -0.004(2) -0.001(2)
#End of TTdata_93968-ICSD