
#(C) 2019 by FIZ Karlsruhe - Leibniz Institute for Information Infrastructure.  All rights reserved.
data_94084-ICSD
_database_code_ICSD 94084
_audit_creation_date 2003-04-01
_audit_update_record 2006-04-01
_chemical_name_systematic 'Sodium magnesium fluoride'
_chemical_formula_structural 'Na Mg F3'
_chemical_formula_sum 'F3 Mg1 Na1'
_chemical_name_structure_type Perovskite-GdFeO3
_chemical_name_mineral Neighborite
_exptl_crystal_density_diffrn 3.07
_publ_section_title

;
The crystal chemistry of synthetic potassium-bearing neighborite, (Na1-x Kx)
Mg F3
;
loop_
_citation_id
_citation_journal_full
_citation_year
_citation_journal_volume
_citation_page_first
_citation_page_last
_citation_journal_id_ASTM
primary 'Physics and Chemistry of Minerals' 2001 28 277 284 PCMIDU
loop_
_publ_author_name
'Chakhmouradian, A.R.'
'Ross, K.'
'Mitchell, R.H.'
'Swainson, I.'
_cell_length_a 5.3607(1)
_cell_length_b 5.4873(1)
_cell_length_c 7.6662(1)
_cell_angle_alpha 90
_cell_angle_beta 90
_cell_angle_gamma 90
_cell_volume 225.51
_cell_formula_units_Z 4
_symmetry_space_group_name_H-M 'P b n m'
_symmetry_Int_Tables_number 62
_refine_ls_R_factor_all 0.037
loop_
_symmetry_equiv_pos_site_id
_symmetry_equiv_pos_as_xyz
1 '-x+1/2, y+1/2, z'
2 'x, y, -z+1/2'
3 'x+1/2, -y+1/2, z+1/2'
4 '-x, -y, -z'
5 'x+1/2, -y+1/2, -z'
6 '-x, -y, z+1/2'
7 '-x+1/2, y+1/2, -z+1/2'
8 'x, y, z'
loop_
_atom_type_symbol
_atom_type_oxidation_number
Na1+ 1
Mg2+ 2
F1- -1
loop_
_atom_site_label
_atom_site_type_symbol
_atom_site_symmetry_multiplicity
_atom_site_Wyckoff_symbol
_atom_site_fract_x
_atom_site_fract_y
_atom_site_fract_z
_atom_site_B_iso_or_equiv
_atom_site_occupancy
_atom_site_attached_hydrogens
Na1 Na1+ 4 c 0.9895(4) 0.0441(3) 0.25 1.89(4) 1. 0
Mg1 Mg2+ 4 b 0 0.5 0 0.89(3) 1. 0
F1 F1- 4 c 0.0897(4) 0.4722(4) 0.25 1.17(5) 1. 0
F2 F1- 8 d 0.7028(5) 0.2964(3) 0.0476(2) 1.20(4) 1. 0
#End of TTdata_94084-ICSD