
#(C) 2019 by FIZ Karlsruhe - Leibniz Institute for Information Infrastructure.  All rights reserved.
data_94086-ICSD
_database_code_ICSD 94086
_audit_creation_date 2003-04-01
_chemical_name_systematic 'Sodium potassium magnesium fluoride (0.82/0.18/1/3)'
_chemical_formula_structural '(Na0.82 K0.18) Mg F3'
_chemical_formula_sum 'F3 K0.18 Mg1 Na0.82'
_chemical_name_structure_type Perovskite-GdFeO3
_chemical_name_mineral 'Neighborite (K-bearing)'
_exptl_crystal_density_diffrn 3.06
_publ_section_title

;
The crystal chemistry of synthetic potassium-bearing neighborite, (Na1-x Kx)
Mg F3
;
loop_
_citation_id
_citation_journal_full
_citation_year
_citation_journal_volume
_citation_page_first
_citation_page_last
_citation_journal_id_ASTM
primary 'Physics and Chemistry of Minerals' 2001 28 277 284 PCMIDU
loop_
_publ_author_name
'Chakhmouradian, A.R.'
'Ross, K.'
'Mitchell, R.H.'
'Swainson, I.'
_cell_length_a 5.4486(5)
_cell_length_b 5.5101(5)
_cell_length_c 7.7623(8)
_cell_angle_alpha 90
_cell_angle_beta 90
_cell_angle_gamma 90
_cell_volume 233.04
_cell_formula_units_Z 4
_symmetry_space_group_name_H-M 'P b n m'
_symmetry_Int_Tables_number 62
_refine_ls_R_factor_all 0.048
loop_
_symmetry_equiv_pos_site_id
_symmetry_equiv_pos_as_xyz
1 '-x+1/2, y+1/2, z'
2 'x, y, -z+1/2'
3 'x+1/2, -y+1/2, z+1/2'
4 '-x, -y, -z'
5 'x+1/2, -y+1/2, -z'
6 '-x, -y, z+1/2'
7 '-x+1/2, y+1/2, -z+1/2'
8 'x, y, z'
loop_
_atom_type_symbol
_atom_type_oxidation_number
Na1+ 1
K1+ 1
Mg2+ 2
F1- -1
loop_
_atom_site_label
_atom_site_type_symbol
_atom_site_symmetry_multiplicity
_atom_site_Wyckoff_symbol
_atom_site_fract_x
_atom_site_fract_y
_atom_site_fract_z
_atom_site_B_iso_or_equiv
_atom_site_occupancy
_atom_site_attached_hydrogens
Na1 Na1+ 4 c 0.9911(9) 0.0244(6) 0.25 2.09(5) 0.82 0
K1 K1+ 4 c 0.9911(9) 0.0244(6) 0.25 2.09(5) 0.18 0
Mg1 Mg2+ 4 b 0.5 0 0 0.94(4) 1. 0
F1 F1- 4 c 0.0778(9) 0.4831(8) 0.25 1.4(1) 1. 0
F2 F1- 8 d 0.7084(5) 0.2876(5) 0.0290(5) 1.62(8) 1. 0
#End of TTdata_94086-ICSD