
#(C) 2019 by FIZ Karlsruhe - Leibniz Institute for Information Infrastructure.  All rights reserved.
data_94549-ICSD
_database_code_ICSD 94549
_audit_creation_date 2003-10-01
_chemical_name_systematic 'Sodium tetracopper tris(arsenate(V))'
_chemical_formula_structural 'Na Cu4 (As O4)3'
_chemical_formula_sum 'As3 Cu4 Na1 O12'
_chemical_name_structure_type NaCu4(AsO4)3
_chemical_name_mineral Bradaczekite
_exptl_crystal_density_diffrn 4.79
_publ_section_title

;
The Jahn-Teller distortion of copper coordination polyhedra in the alluaudite
structural type. Crystal structure of bradaczekite, Na Cu4 (As O4)3
;
loop_
_citation_id
_citation_journal_full
_citation_year
_citation_journal_volume
_citation_page_first
_citation_page_last
_citation_journal_id_ASTM
primary 'Zapiski Vserossiiskogo Mineralogicheskogo Obshchestva' 2001 130 1 8
ZVMOEK
loop_
_publ_author_name
'Krivovichev, S.V.'
'Filatov, S.K.'
'Burns, P.C.'
_cell_length_a 12.053(2)
_cell_length_b 12.432(2)
_cell_length_c 7.2529(13)
_cell_angle_alpha 90
_cell_angle_beta 117.793(3)
_cell_angle_gamma 90
_cell_volume 961.42
_cell_formula_units_Z 4
_symmetry_space_group_name_H-M 'C 1 2/c 1'
_symmetry_Int_Tables_number 15
_refine_ls_R_factor_all 0.03
loop_
_symmetry_equiv_pos_site_id
_symmetry_equiv_pos_as_xyz
1 'x, -y, z+1/2'
2 '-x, -y, -z'
3 '-x, y, -z+1/2'
4 'x, y, z'
5 'x+1/2, -y+1/2, z+1/2'
6 '-x+1/2, -y+1/2, -z'
7 '-x+1/2, y+1/2, -z+1/2'
8 'x+1/2, y+1/2, z'
loop_
_atom_type_symbol
_atom_type_oxidation_number
As5+ 5
Cu2+ 2
Na1+ 1
O2- -2
loop_
_atom_site_label
_atom_site_type_symbol
_atom_site_symmetry_multiplicity
_atom_site_Wyckoff_symbol
_atom_site_fract_x
_atom_site_fract_y
_atom_site_fract_z
_atom_site_B_iso_or_equiv
_atom_site_occupancy
_atom_site_attached_hydrogens
As1 As5+ 8 f 0.22752(4) 0.38288(4) 0.12152(7) 0.0071(2) 1. 0
As2 As5+ 4 e 0 0.22278(6) 0.25 0.0076(2) 1. 0
Cu1 Cu2+ 4 e 0 0.00439(7) 0.25 0.0099(2) 1. 0
Cu2 Cu2+ 8 f 0.78021(5) 0.34367(5) 0.86019(9) 0.0108(2) 1. 0
Cu3 Cu2+ 4 e 0 0.76511(8) 0.25 0.0140(2) 1. 0
Na1 Na1+ 4 e 0 0.4924(3) 0.25 0.0209(7) 1. 0
O1 O2- 8 f 0.1672(3) 0.5053(3) 0.1180(6) 0.0128(7) 1. 0
O2 O2- 8 f 0.8970(3) 0.1230(3) 0.2418(5) 0.0107(7) 1. 0
O3 O2- 8 f 0.3819(3) 0.3893(2) 0.1763(6) 0.0136(7) 1. 0
O4 O2- 8 f 0.2212(3) 0.3075(3) 0.3080(5) 0.0106(7) 1. 0
O5 O2- 8 f 0.1456(3) 0.3328(3) 0.8786(5) 0.0108(7) 1. 0
O6 O2- 8 f -0.0430(3) 0.2971(3) 0.0365(5) 0.0144(7) 1. 0
#End of TTdata_94549-ICSD