
#(C) 2019 by FIZ Karlsruhe - Leibniz Institute for Information Infrastructure.  All rights reserved.
data_9464-ICSD
_database_code_ICSD 9464
_audit_creation_date 1986-08-12
_chemical_name_systematic 'Sodium aluminium silicate octasulfur *'
_chemical_formula_structural 'Na11 Al11 Si13 O48 S16'
_chemical_formula_sum 'Al11 Na11 O48 S16 Si13'
_chemical_name_structure_type Zeolite-A-frame
_exptl_crystal_density_diffrn 1.96
_publ_section_title
'The Crystal Structure of a Sulfur Sorption Complex of Zeolite 4A'
loop_
_citation_id
_citation_journal_full
_citation_year
_citation_journal_volume
_citation_page_first
_citation_page_last
_citation_journal_id_ASTM
primary 'Journal of Physical Chemistry' 1972 76 2601 2605 JPCHAX
loop_
_publ_author_name
'Seff, K.'
_cell_length_a 12.289(2)
_cell_length_b 12.289(2)
_cell_length_c 12.289(2)
_cell_angle_alpha 90.
_cell_angle_beta 90.
_cell_angle_gamma 90.
_cell_volume 1855.88
_cell_formula_units_Z 1
_symmetry_space_group_name_H-M 'P m -3 m'
_symmetry_Int_Tables_number 221
_refine_ls_R_factor_all 0.093
loop_
_symmetry_equiv_pos_site_id
_symmetry_equiv_pos_as_xyz
1 'z, y, -x'
2 'y, x, -z'
3 'x, z, -y'
4 'z, x, -y'
5 'y, z, -x'
6 'x, y, -z'
7 'z, -y, x'
8 'y, -x, z'
9 'x, -z, y'
10 'z, -x, y'
11 'y, -z, x'
12 'x, -y, z'
13 '-z, y, x'
14 '-y, x, z'
15 '-x, z, y'
16 '-z, x, y'
17 '-y, z, x'
18 '-x, y, z'
19 '-z, -y, -x'
20 '-y, -x, -z'
21 '-x, -z, -y'
22 '-z, -x, -y'
23 '-y, -z, -x'
24 '-x, -y, -z'
25 '-z, -y, x'
26 '-y, -x, z'
27 '-x, -z, y'
28 '-z, -x, y'
29 '-y, -z, x'
30 '-x, -y, z'
31 '-z, y, -x'
32 '-y, x, -z'
33 '-x, z, -y'
34 '-z, x, -y'
35 '-y, z, -x'
36 '-x, y, -z'
37 'z, -y, -x'
38 'y, -x, -z'
39 'x, -z, -y'
40 'z, -x, -y'
41 'y, -z, -x'
42 'x, -y, -z'
43 'z, y, x'
44 'y, x, z'
45 'x, z, y'
46 'z, x, y'
47 'y, z, x'
48 'x, y, z'
loop_
_atom_type_symbol
_atom_type_oxidation_number
Na1+ 1
Al3+ 3
Si4+ 4
O2- -2
S0+ 0
loop_
_atom_site_label
_atom_site_type_symbol
_atom_site_symmetry_multiplicity
_atom_site_Wyckoff_symbol
_atom_site_fract_x
_atom_site_fract_y
_atom_site_fract_z
_atom_site_B_iso_or_equiv
_atom_site_occupancy
_atom_site_attached_hydrogens
Na1 Na1+ 8 g 0.209(2) 0.209(2) 0.209(2) . 1. 0
Na2 Na1+ 12 i 0 0.440(12) 0.440(12) 19. 0.25 0
Al1 Al3+ 24 k 0 0.1824(4) 0.3706(3) 1.2 0.4583 0
Si1 Si4+ 24 k 0 0.1824(4) 0.3706(3) 1.2 0.5417 0
O1 O2- 12 h 0 0.219(2) 0.5 2.6 1. 0
O2 O2- 12 i 0 0.295(1) 0.295(1) 2. 1. 0
O3 O2- 24 m 0.112(1) 0.112(1) 0.339(1) 2.8 1. 0
S1 S0+ 24 m 0.293(13) 0.358(8) 0.358(8) 30. 0.3333 0
S2 S0+ 24 l 0.246(7) 0.307(7) 0.5 20. 0.3333 0
loop_
_atom_site_aniso_label
_atom_site_aniso_type_symbol
_atom_site_aniso_beta_11
_atom_site_aniso_beta_22
_atom_site_aniso_beta_33
_atom_site_aniso_beta_12
_atom_site_aniso_beta_13
_atom_site_aniso_beta_23
Na1 Na1+ 0.014(2) 0.014(2) 0.014(2) 0.011(2) 0.011(2) 0.011(2)
#End of TTdata_9464-ICSD