
#(C) 2019 by FIZ Karlsruhe - Leibniz Institute for Information Infrastructure.  All rights reserved.
data_94981-ICSD
_database_code_ICSD 94981
_audit_creation_date 2003-10-01
_audit_update_record 2012-02-01
_chemical_name_systematic 'Trisodium yttrium bis(borate)'
_chemical_formula_structural 'Na3 Y (B O3)2'
_chemical_formula_sum 'B2 Na3 O6 Y1'
_chemical_name_structure_type Na3Y(BO3)2
_exptl_crystal_density_diffrn 3.13
_publ_section_title

;
Synthesis and structural study of new rare earth sodium borates Na3 Ln (B O3)2
(Ln= Y, Gd)
;
loop_
_citation_id
_citation_journal_full
_citation_year
_citation_journal_volume
_citation_page_first
_citation_page_last
_citation_journal_id_ASTM
primary 'Journal of Alloys and Compounds' 2002 333 72 75 JALCEU
loop_
_publ_author_name
'Zhang, Y.'
'Chen, X.-L.'
'Liang, J.-K.'
'Xu, T.'
_cell_length_a 6.5050(3)
_cell_length_b 8.5172(1)
_cell_length_c 12.0213(1)
_cell_angle_alpha 90
_cell_angle_beta 118.73(7)
_cell_angle_gamma 90
_cell_volume 584.04
_cell_formula_units_Z 4
_symmetry_space_group_name_H-M 'P 1 21/c 1'
_symmetry_Int_Tables_number 14
_refine_ls_R_factor_all 0.0512
loop_
_symmetry_equiv_pos_site_id
_symmetry_equiv_pos_as_xyz
1 'x, -y+1/2, z+1/2'
2 '-x, -y, -z'
3 '-x, y+1/2, -z+1/2'
4 'x, y, z'
loop_
_atom_type_symbol
_atom_type_oxidation_number
Y3+ 3
Na1+ 1
B3+ 3
O2- -2
loop_
_atom_site_label
_atom_site_type_symbol
_atom_site_symmetry_multiplicity
_atom_site_Wyckoff_symbol
_atom_site_fract_x
_atom_site_fract_y
_atom_site_fract_z
_atom_site_B_iso_or_equiv
_atom_site_occupancy
_atom_site_attached_hydrogens
Y1 Y3+ 4 e 0.0982(2) 0.1266(1) 0.3294(1) 1.3(1) 1. 0
Na1 Na1+ 4 e 0.4027(6) 0.7955(4) 0.3763(3) 1.8(2) 1. 0
Na2 Na1+ 4 e 0.0671(6) 0.2919(4) 0.0720(4) 1.0(2) 1. 0
Na3 Na1+ 4 e 0.3352(5) 0.9472(4) 0.1138(3) 1.9(2) 1. 0
B1 B3+ 4 e 0.1536(8) 0.4464(3) 0.3739(1) 1.2(3) 1. 0
B2 B3+ 4 e 0.3651(2) 0.5901(1) 0.1394(9) 1.9(3) 1. 0
O1 O2- 4 e 0.2687(8) 0.3359(6) 0.4791(4) 0.9(2) 1. 0
O2 O2- 4 e 0.0539(7) 0.3791(8) 0.2552(4) 1.2(2) 1. 0
O3 O2- 4 e 0.1420(6) 0.5967(5) 0.3961(3) 0.6(2) 1. 0
O4 O2- 4 e 0.2578(7) 0.6913(5) 0.1785(4) 0.9(2) 1. 0
O5 O2- 4 e 0.2629(9) 0.5059(6) 0.0227(7) 1.4(2) 1. 0
O6 O2- 4 e 0.3999(9) 0.0772(6) 0.3074(4) 1.8(2) 1. 0
#End of TTdata_94981-ICSD