
#(C) 2019 by FIZ Karlsruhe - Leibniz Institute for Information Infrastructure.  All rights reserved.
data_95067-ICSD
_database_code_ICSD 95067
_audit_creation_date 2003-10-01
_chemical_name_systematic 'Hexasodium tetrathiomanganate - antiferromagnetic'
_chemical_formula_structural 'Na6 (Mn S4)'
_chemical_formula_sum 'Mn1 Na6 S4'
_chemical_name_structure_type K6HgS4
_exptl_crystal_density_diffrn 2.26
_cell_measurement_temperature 1.6
_publ_section_title 'Magnetic properties of the ternary sulfide Na6 Mn S4'
loop_
_citation_id
_citation_journal_full
_citation_year
_citation_journal_volume
_citation_page_first
_citation_page_last
_citation_journal_id_ASTM
primary 'Journal of Alloys and Compounds' 2002 338 116 120 JALCEU
loop_
_publ_author_name
'Bronger, W.'
'Boehmer, M.'
'Mueller, P.'
_cell_length_a 8.911(1)
_cell_length_b 8.911(1)
_cell_length_c 6.857(1)
_cell_angle_alpha 90
_cell_angle_beta 90
_cell_angle_gamma 120
_cell_volume 471.54
_cell_formula_units_Z 2
_symmetry_space_group_name_H-M 'P 63 m c'
_symmetry_Int_Tables_number 186
_refine_ls_R_factor_all 0.056
loop_
_symmetry_equiv_pos_site_id
_symmetry_equiv_pos_as_xyz
1 '-x, -x+y, z+1/2'
2 'x-y, -y, z+1/2'
3 'y, x, z+1/2'
4 'x-y, x, z+1/2'
5 'y, -x+y, z+1/2'
6 '-x, -y, z+1/2'
7 'x, x-y, z'
8 '-x+y, y, z'
9 '-y, -x, z'
10 '-x+y, -x, z'
11 '-y, x-y, z'
12 'x, y, z'
loop_
_atom_type_symbol
_atom_type_oxidation_number
Na1+ 1
Mn2+ 2
S2- -2
loop_
_atom_site_label
_atom_site_type_symbol
_atom_site_symmetry_multiplicity
_atom_site_Wyckoff_symbol
_atom_site_fract_x
_atom_site_fract_y
_atom_site_fract_z
_atom_site_B_iso_or_equiv
_atom_site_occupancy
_atom_site_attached_hydrogens
Na1 Na1+ 6 c 0.141 0.859 0.537 0.6 1. 0
Na2 Na1+ 6 c 0.533 0.467 0.37 0.6 1. 0
Mn1 Mn2+ 2 b 0.3333 0.6667 0.25 0.6 1. 0
S1 S2- 2 b 0.3333 0.6667 0.6 0.6 1. 0
S2 S2- 6 c 0.182 0.818 0.145 0.6 1. 0
#End of TTdata_95067-ICSD