
#(C) 2019 by FIZ Karlsruhe - Leibniz Institute for Information Infrastructure.  All rights reserved.
data_95299-ICSD
_database_code_ICSD 95299
_audit_creation_date 2003-10-01
_audit_update_record 2005-10-01
_chemical_name_systematic
'Sodium tetradeuterioammonium heptagermanate dideuteriohydrate (3/0.96/1/5.92)'
_chemical_formula_structural 'Na3 (N D4)0.96 (Ge7 O16) (D2 O)5.92'
_chemical_formula_sum 'D15.68 Ge7 N0.96 Na3 O21.92'
_exptl_crystal_density_diffrn 3.45
_publ_section_title

;
The crystal structures of Ag4 Ge7 O16 * 6(D2 O) and Na3 (N D4) Ge7 O16 * (D2
O) refined from high resolution synchrotron radiation and neutron powder
diffraction data
;
loop_
_citation_id
_citation_journal_full
_citation_year
_citation_journal_volume
_citation_page_first
_citation_page_last
_citation_journal_id_ASTM
primary 'Journal of Physics and Chemistry of Solids' 1991 52 1209 1218 JPCSAW
loop_
_publ_author_name
'Roberts, M.A.'
'Fitch, A.N.'
_cell_length_a 7.769(6)
_cell_length_b 7.769(6)
_cell_length_c 7.769(6)
_cell_angle_alpha 88.77(5)
_cell_angle_beta 88.77(5)
_cell_angle_gamma 88.77(5)
_cell_volume 468.6
_cell_formula_units_Z 1
_symmetry_space_group_name_H-M 'R 3 m R'
_symmetry_Int_Tables_number 160
_refine_ls_R_factor_all 0.036
loop_
_symmetry_equiv_pos_site_id
_symmetry_equiv_pos_as_xyz
1 'z, y, x'
2 'z, x, y'
3 'x, z, y'
4 'y, z, x'
5 'y, x, z'
6 'x, y, z'
loop_
_atom_type_symbol
_atom_type_oxidation_number
Ge4+ 4
O2- -2
N3- -3
D1+ 1
Na1+ 1
O2- -2
D1+ 1
O2- -2
D1+ 1
loop_
_atom_site_label
_atom_site_type_symbol
_atom_site_symmetry_multiplicity
_atom_site_Wyckoff_symbol
_atom_site_fract_x
_atom_site_fract_y
_atom_site_fract_z
_atom_site_B_iso_or_equiv
_atom_site_occupancy
_atom_site_attached_hydrogens
Ge1 Ge4+ 3 b 0.4836(5) 0.4836(5) -0.0187(6) 0.45(3) 1. 0
Ge2 Ge4+ 1 a 0.3447(6) 0.3447(6) 0.3447(6) 0.59(7) 1. 0
Ge3 Ge4+ 3 b 0.6136(5) 0.6136(5) 0.3390(5) 0.42(3) 1. 0
O1 O2- 3 b 0.3537(6) 0.3537(6) 0.1094(6) 0.80(7) 1. 0
O2 O2- 3 b 0.6134(6) 0.6134(6) 0.1028(7) 0.72(5) 1. 0
O3 O2- 6 c 0.6108(5) 0.3452(5) 0.8501(6) 0.66(4) 1. 0
O4 O2- 1 a 0.5929(6) 0.5929(6) 0.5929(6) 0.35(9) 1. 0
O5 O2- 3 b 0.3628(6) 0.3628(6) 0.5973(6) 0.70(5) 1. 0
N1 N3- 1 a 0.7943(6) 0.7943(6) 0.7943(6) 2.0(1) 0.958(3) 0
D1 D1+ 1 a 0.7188(7) 0.7188(7) 0.7188(7) 2.1(2) 0.958(4) 0
D2 D1+ 3 b 0.8712(6) 0.8712(6) 0.7124(8) 3.4(1) 0.958(4) 0
Na1 Na1+ 3 b 0.9027(7) 0.9027(7) 0.2944(9) 2.2(1) 1. 0
O6 O2- 3 b 0.1842(6) 0.1842(6) 0.8638(5) 1.71(8) 0.98(1) 0
D3 D1+ 3 b 0.2369(6) 0.2369(6) 0.9670(7) 2.27(9) 0.98(1) 0
D4 D1+ 3 b 0.2401(6) 0.2401(6) 0.7617(8) 2.49(9) 0.98(1) 0
O7 O2- 3 b -0.0020(5) -0.0020(5) 0.5628(6) 1.90(9) 0.993(7) 0
D5 D1+ 6 c -0.0283(7) 0.1164(6) 0.5691(7) 4.12(8) 0.993(7) 0
#End of TTdata_95299-ICSD