
#(C) 2019 by FIZ Karlsruhe - Leibniz Institute for Information Infrastructure.  All rights reserved.
data_9541-ICSD
_database_code_ICSD 9541
_audit_creation_date 1980-01-01
_audit_update_record 1999-11-30
_chemical_name_systematic 'Sodium potassium aluminium silicate *'
_chemical_formula_structural 'Na6 K1.2 Al7.1 Si8.9 O32'
_chemical_formula_sum 'Al7.1 K1.2 Na6 O32 Si8.9'
_chemical_name_structure_type KNa3Al4(SiO4)4
_chemical_name_mineral Nepheline
_exptl_crystal_density_diffrn 2.6
_publ_section_title
'Least-squares refinement of the structure of a plutonic nepheline'
loop_
_citation_id
_citation_journal_full
_citation_year
_citation_journal_volume
_citation_page_first
_citation_page_last
_citation_journal_id_ASTM
primary 'Zeitschrift fuer Kristallographie' 1970 132 27 44 ZEKRDZ
loop_
_publ_author_name
'Dollase, W.A.'
_cell_length_a 10.007(7)
_cell_length_b 10.007(7)
_cell_length_c 8.385(5)
_cell_angle_alpha 90.
_cell_angle_beta 90.
_cell_angle_gamma 120.
_cell_volume 727.18
_cell_formula_units_Z 1
_symmetry_space_group_name_H-M 'P 63'
_symmetry_Int_Tables_number 173
_refine_ls_R_factor_all 0.073
loop_
_symmetry_equiv_pos_site_id
_symmetry_equiv_pos_as_xyz
1 'x-y, x, z+1/2'
2 'y, -x+y, z+1/2'
3 '-x, -y, z+1/2'
4 '-x+y, -x, z'
5 '-y, x-y, z'
6 'x, y, z'
loop_
_atom_type_symbol
_atom_type_oxidation_number
Na1+ 1
K1+ 1
Al3+ 3
Si4+ 4
O2- -2
loop_
_atom_site_label
_atom_site_type_symbol
_atom_site_symmetry_multiplicity
_atom_site_Wyckoff_symbol
_atom_site_fract_x
_atom_site_fract_y
_atom_site_fract_z
_atom_site_B_iso_or_equiv
_atom_site_occupancy
_atom_site_attached_hydrogens
Na1 Na1+ 6 c 0.9965(4) 0.4427(4) 0.25 . 1. 0
K1 K1+ 2 a 0 0 0.25 . 0.61(1) 0
Al1 Al3+ 2 b 0.3333 0.6667 0.4445(3) 0.73 0.6 0
Al2 Al3+ 2 b 0.3333 0.6667 0.0555(3) 0.73 0.23 0
Al3 Al3+ 6 c 0.0939(1) 0.3333(1) 0.5638(2) 0.71 0.13 0
Al4 Al3+ 6 c 0.0939(1) 0.3333(1) -.0638(2) 0.71 0.78 0
Si1 Si4+ 2 b 0.3333 0.6667 0.4445(3) 0.73 0.4 0
Si2 Si4+ 2 b 0.3333 0.6667 0.0555(3) 0.73 0.77 0
Si3 Si4+ 6 c 0.0939(1) 0.3333(1) 0.5638(2) 0.71 0.87 0
Si4 Si4+ 6 c 0.0939(1) 0.3333(1) -.0638(2) 0.71 0.22 0
O1 O2- 6 c 0.2914(19) 0.6315(23) 0.25 2. 0.3333 0
O2 O2- 6 c 0.0279(7) 0.3179(8) 0.75 . 1. 0
O3 O2- 6 c 0.1721(10) 0.5248(9) 0.9844(18) . 1. 0
O4 O2- 6 c 0.1638(10) 0.5086(9) 0.4954(18) . 1. 0
O5 O2- 6 c 0.2258(4) 0.2860(8) 0.5609(5) . 1. 0
O6 O2- 6 c 0.2258(4) 0.2689(7) -.0609(5) . 1. 0
loop_
_atom_site_aniso_label
_atom_site_aniso_type_symbol
_atom_site_aniso_beta_11
_atom_site_aniso_beta_22
_atom_site_aniso_beta_33
_atom_site_aniso_beta_12
_atom_site_aniso_beta_13
_atom_site_aniso_beta_23
Na1 Na1+ 0.0087(5) 0.0048(4) 0.0055(5) 0.0041(4) 0 0
K1 K1+ 0.0045(3) 0.0045(3) 0.0090(8) 0.0022(2) 0 0
O2 O2- 0.0067(8) 0.0151(12) 0.0042(8) 0.0078(9) 0 0
O3 O2- 0.0034(4) 0.0027(4) 0.0199(11) 0.0014(4) 0.0005(6) 0.0011(6)
O4 O2- 0.0034(4) 0.0027(4) 0.0199(11) 0.0014(4) 0.0005(6) 0.0011(6)
O5 O2- 0.0046(4) 0.0073(5) 0.0056(5) 0.0042(4) 0.0002(4) 0.0006(5)
O6 O2- 0.0046(4) 0.0073(5) 0.0056(5) 0.0042(4) 0.0002(4) 0.0006(5)
#End of TTdata_9541-ICSD