
#(C) 2019 by FIZ Karlsruhe - Leibniz Institute for Information Infrastructure.  All rights reserved.
data_95417-ICSD
_database_code_ICSD 95417
_audit_creation_date 2003-10-01
_audit_update_record 2013-08-01
_chemical_name_systematic 'Tetrasodium tristannate'
_chemical_formula_structural 'Na4 (Sn3 O8)'
_chemical_formula_sum 'Na4 O8 Sn3'
_chemical_name_structure_type Na4Sn3O8
_exptl_crystal_density_diffrn 4.94
_publ_section_title 'Synthesis and crystal structure of Na4 Sn3 O8'
loop_
_citation_id
_citation_journal_full
_citation_year
_citation_journal_volume
_citation_page_first
_citation_page_last
_citation_journal_id_ASTM
primary 'Journal of Materials Chemistry' 2002 12 1068 1070 JMACEP
loop_
_publ_author_name
'Iwasaki, M.'
'Takizawa, H.'
'Uheda, K.'
'Endo, T.'
_cell_length_a 9.1815(2)
_cell_length_b 9.1815(2)
_cell_length_c 9.1815(2)
_cell_angle_alpha 90
_cell_angle_beta 90
_cell_angle_gamma 90
_cell_volume 774.
_cell_formula_units_Z 4
_symmetry_space_group_name_H-M 'P 41 3 2'
_symmetry_Int_Tables_number 213
_refine_ls_R_factor_all 0.0449
loop_
_symmetry_equiv_pos_site_id
_symmetry_equiv_pos_as_xyz
1 '-z+1/4, y+3/4, x+1/4'
2 'z+1/4, -y+1/4, x+3/4'
3 'z+3/4, y+1/4, -x+1/4'
4 '-z+3/4, -y+3/4, -x+3/4'
5 'y+3/4, x+1/4, -z+1/4'
6 '-y+1/4, x+3/4, z+1/4'
7 'y+1/4, -x+1/4, z+3/4'
8 '-y+3/4, -x+3/4, -z+3/4'
9 'x+1/4, -z+1/4, y+3/4'
10 'x+3/4, z+1/4, -y+1/4'
11 '-x+1/4, z+3/4, y+1/4'
12 '-x+3/4, -z+3/4, -y+3/4'
13 'z+1/2, -x+1/2, -y'
14 '-z+1/2, -x, y+1/2'
15 '-z, x+1/2, -y+1/2'
16 'z, x, y'
17 '-y, z+1/2, -x+1/2'
18 'y+1/2, -z+1/2, -x'
19 '-y+1/2, -z, x+1/2'
20 'y, z, x'
21 '-x+1/2, -y, z+1/2'
22 '-x, y+1/2, -z+1/2'
23 'x+1/2, -y+1/2, -z'
24 'x, y, z'
loop_
_atom_type_symbol
_atom_type_oxidation_number
Sn4+ 4
Na1+ 1
O2- -2
loop_
_atom_site_label
_atom_site_type_symbol
_atom_site_symmetry_multiplicity
_atom_site_Wyckoff_symbol
_atom_site_fract_x
_atom_site_fract_y
_atom_site_fract_z
_atom_site_B_iso_or_equiv
_atom_site_occupancy
_atom_site_attached_hydrogens
Sn1 Sn4+ 12 d 0.61572(9) 0.86572(9) 0.625 0.47(3) 1. 0
Na1 Na1+ 4 b 0.875 0.875 0.875 2.3(2) 1. 0
Na2 Na1+ 4 a 0.375 0.375 0.375 3.1(2) 0.75 0
Na3 Na1+ 12 d 0.3540(8) 0.6040(8) 0.625 3.1(2) 0.75 0
O1 O2- 8 c 0.1159(10) 0.1159(10) 0.1159(10) 0.42(13) 1. 0
O2 O2- 24 e 0.1363(9) 0.9023(8) 0.9093(9) 0.42(13) 1. 0
#End of TTdata_95417-ICSD