
#(C) 2019 by FIZ Karlsruhe - Leibniz Institute for Information Infrastructure.  All rights reserved.
data_95637-ICSD
_database_code_ICSD 95637
_audit_creation_date 2003-10-01
_chemical_name_systematic 'Sodium nickel oxide (1.03/0.95/2)'
_chemical_formula_structural 'Na1.03 Ni0.95 O2'
_chemical_formula_sum 'Na1.03 Ni0.95 O2'
_chemical_name_structure_type NaNiO2(mS8)
_exptl_crystal_density_diffrn 4.68
_publ_section_title
'Synthesis, structure and physical properties of Lix Na1-x Ni O2'
loop_
_citation_id
_citation_journal_full
_citation_year
_citation_journal_volume
_citation_page_first
_citation_page_last
_citation_journal_id_ASTM
primary 'Solid State Ionics' 2002 152 303 309 SSIOD3
loop_
_publ_author_name
'Matsumura, T.'
'Kanno, R.'
'Gover, R.'
'Kawamoto, Y.'
'Kamiyama, T.'
'Mitchell, B.J.'
_cell_length_a 5.31416(9)
_cell_length_b 2.84626(5)
_cell_length_c 5.57699(10)
_cell_angle_alpha 90
_cell_angle_beta 110.3995(10)
_cell_angle_gamma 90
_cell_volume 79.06
_cell_formula_units_Z 2
_symmetry_space_group_name_H-M 'C 1 2/m 1'
_symmetry_Int_Tables_number 12
_refine_ls_R_factor_all 0.0332
loop_
_symmetry_equiv_pos_site_id
_symmetry_equiv_pos_as_xyz
1 '-x, y, -z'
2 '-x, -y, -z'
3 'x, -y, z'
4 'x, y, z'
5 '-x+1/2, y+1/2, -z'
6 '-x+1/2, -y+1/2, -z'
7 'x+1/2, -y+1/2, z'
8 'x+1/2, y+1/2, z'
loop_
_atom_type_symbol
_atom_type_oxidation_number
Ni3+ 3.13
Na1+ 1
O2- -2
loop_
_atom_site_label
_atom_site_type_symbol
_atom_site_symmetry_multiplicity
_atom_site_Wyckoff_symbol
_atom_site_fract_x
_atom_site_fract_y
_atom_site_fract_z
_atom_site_B_iso_or_equiv
_atom_site_occupancy
_atom_site_attached_hydrogens
Ni1 Ni3+ 2 a 0 0 0 0.499(19) 0.947(10) 0
Na1 Na1+ 2 a 0 0 0 0.499(19) 0.053(10) 0
Na2 Na1+ 2 d 0 0.5 0.5 0.83(3) 0.98(8) 0
O1 O2- 4 i 0.28371(15) 0 0.80359(13) 0.71(2) 1. 0
#End of TTdata_95637-ICSD