
#(C) 2019 by FIZ Karlsruhe - Leibniz Institute for Information Infrastructure.  All rights reserved.
data_95725-ICSD
_database_code_ICSD 95725
_audit_creation_date 2004-04-01
_chemical_name_systematic
'Disodium phyllo-tris(phosphato(V))ferro(III)dimanganate(II)'
_chemical_formula_structural 'Na2 (Fe Mn2 (P O4)3)'
_chemical_formula_sum 'Fe1 Mn2 Na2 O12 P3'
_chemical_name_structure_type Alluaudite
_exptl_crystal_density_diffrn 3.66
_publ_section_title

;
Structural and electrical study of the alluaudites (Ag1-x Nax)2 Fe Mn2 (P O4)3
(x = 0, 0.5 and 1)
;
loop_
_citation_id
_citation_journal_full
_citation_year
_citation_journal_volume
_citation_page_first
_citation_page_last
_citation_journal_id_ASTM
primary 'Solid State Sciences' 2002 4 541 548 SSSCFJ
loop_
_publ_author_name
'Daidouh, A.'
'Durio, C.'
'Pico, C.'
'Veiga, M.L.'
'Chouaibi, N.'
'Ouassini, A.'
_cell_length_a 12.049(5)
_cell_length_b 12.624(1)
_cell_length_c 6.507(3)
_cell_angle_alpha 90
_cell_angle_beta 114.559(3)
_cell_angle_gamma 90
_cell_volume 900.22
_cell_formula_units_Z 4
_symmetry_space_group_name_H-M 'C 1 2/c 1'
_symmetry_Int_Tables_number 15
_refine_ls_R_factor_all 0.0515
loop_
_symmetry_equiv_pos_site_id
_symmetry_equiv_pos_as_xyz
1 'x, -y, z+1/2'
2 '-x, -y, -z'
3 '-x, y, -z+1/2'
4 'x, y, z'
5 'x+1/2, -y+1/2, z+1/2'
6 '-x+1/2, -y+1/2, -z'
7 '-x+1/2, y+1/2, -z+1/2'
8 'x+1/2, y+1/2, z'
loop_
_atom_type_symbol
_atom_type_oxidation_number
Na1+ 1
Mn2+ 2
Fe3+ 3
P5+ 5
O2- -2
loop_
_atom_site_label
_atom_site_type_symbol
_atom_site_symmetry_multiplicity
_atom_site_Wyckoff_symbol
_atom_site_fract_x
_atom_site_fract_y
_atom_site_fract_z
_atom_site_B_iso_or_equiv
_atom_site_occupancy
_atom_site_attached_hydrogens
Na1 Na1+ 4 b 0 0.5 0 1.3(2) 1. 0
Na2 Na1+ 4 e 0 -0.013(2) 0.25 1.7(2) 1. 0
Mn1 Mn2+ 4 e 0 0.268(3) 0.25 0.8(3) 1. 0
Mn2 Mn2+ 8 f 0.278(3) 0.657(4) 0.359(3) 1.1(3) 0.5 0
Fe1 Fe3+ 8 f 0.278(3) 0.657(4) 0.359(3) 1.1(3) 0.5 0
P1 P5+ 4 e 0 0.714(3) 0.25 0.3(1) 1. 0
P2 P5+ 8 f 0.236(5) 0.891(5) 0.129(4) 1.1(1) 1. 0
O1 O2- 8 f 0.459(2) 0.713(1) 0.550(1) 0.9(1) 1. 0
O2 O2- 8 f 0.089(1) 0.639(5) 0.224(5) 0.8(1) 1. 0
O3 O2- 8 f 0.329(5) 0.669(4) 0.101(2) 1.2(1) 1. 0
O4 O2- 8 f 0.123(1) 0.403(5) 0.319(4) 1.1(1) 1. 0
O5 O2- 8 f 0.229(5) 0.825(1) 0.323(3) 0.7(1) 1. 0
O6 O2- 8 f 0.326(0) 0.491(1) 0.386(2) 0.7(1) 1. 0
#End of TTdata_95725-ICSD