
#(C) 2019 by FIZ Karlsruhe - Leibniz Institute for Information Infrastructure.  All rights reserved.
data_95736-ICSD
_database_code_ICSD 95736
_audit_creation_date 2004-04-01
_audit_update_record 2011-02-01
_chemical_name_systematic 'Disodium magnesium phosphate(V) fluoride'
_chemical_formula_structural 'Na2 Mg (P O4) F'
_chemical_formula_sum 'F1 Mg1 Na2 O4 P1'
_chemical_name_structure_type Na2MgPO4F
_exptl_crystal_density_diffrn 2.89
_cell_measurement_temperature 301.
_publ_section_title

;
New synthetic approaches to monophosphate fluoride ceramics: synthesis and
structural characterization of Na2 Mg (P O4) F and Sr5 (P O4)3 F
;
loop_
_citation_id
_citation_journal_full
_citation_year
_citation_journal_volume
_citation_page_first
_citation_page_last
_citation_journal_id_ASTM
primary 'Solid State Sciences' 2002 4 807 812 SSSCFJ
loop_
_publ_author_name
'Swafford, S.H.'
'Holt, E.M.'
_cell_length_a 5.223(5)
_cell_length_b 13.818(8)
_cell_length_c 11.749(6)
_cell_angle_alpha 90
_cell_angle_beta 90
_cell_angle_gamma 90
_cell_volume 847.94
_cell_formula_units_Z 8
_symmetry_space_group_name_H-M 'P b c n'
_symmetry_Int_Tables_number 60
_refine_ls_R_factor_all 0.0499
loop_
_symmetry_equiv_pos_site_id
_symmetry_equiv_pos_as_xyz
1 'x, -y, z+1/2'
2 '-x+1/2, y+1/2, z'
3 'x+1/2, y+1/2, -z+1/2'
4 '-x, -y, -z'
5 '-x, y, -z+1/2'
6 'x+1/2, -y+1/2, -z'
7 '-x+1/2, -y+1/2, z+1/2'
8 'x, y, z'
loop_
_atom_type_symbol
_atom_type_oxidation_number
Mg2+ 2
Na1+ 1
P5+ 5
O2- -2
F1- -1
loop_
_atom_site_label
_atom_site_type_symbol
_atom_site_symmetry_multiplicity
_atom_site_Wyckoff_symbol
_atom_site_fract_x
_atom_site_fract_y
_atom_site_fract_z
_atom_site_B_iso_or_equiv
_atom_site_occupancy
_atom_site_attached_hydrogens
Mg1 Mg2+ 8 d 0.2784(2) 0.48676(7) 0.17633(8) 0.0123(3) 1. 0
Na1 Na1+ 8 d 0.2411(3) 0.25402(9) 0.17128(11) 0.0205(3) 1. 0
Na2 Na1+ 8 d 0.2558(3) 0.37699(8) 0.41917(11) 0.0186(3) 1. 0
P1 P5+ 8 d 0.2070(1) 0.38237(5) 0.91249(6) 0.0106(2) 1. 0
O1 O2- 8 d 0.2864(4) 0.28232(14) 0.86943(17) 0.0168(4) 1. 0
O2 O2- 8 d 0.3545(4) 0.46314(13) 0.84774(15) 0.0138(4) 1. 0
O3 O2- 8 d 0.2629(4) 0.39183(15) 0.04150(16) 0.0159(4) 1. 0
O4 O2- 8 d -0.0843(4) 0.39915(14) 0.89241(16) 0.0160(4) 1. 0
F1 F1- 4 c 0.5 0.37771(15) 0.25 0.0138(5) 1. 0
F2 F1- 4 c 0 0.41148(15) 0.25 0.0157(5) 1. 0
#End of TTdata_95736-ICSD