
#(C) 2019 by FIZ Karlsruhe - Leibniz Institute for Information Infrastructure.  All rights reserved.
data_95753-ICSD
_database_code_ICSD 95753
_audit_creation_date 2004-04-01
_chemical_name_systematic 'Trisodium nonalanthanum trioxide octakis(borate)'
_chemical_formula_structural 'Na3 La9 O3 (B O3)8'
_chemical_formula_sum 'B8 La9 Na3 O27'
_exptl_crystal_density_diffrn 5.1
_publ_section_title

;
Na3 La9 O3 (B O3)8, a new oxyborate in the ternary system (Na2 O) - (La2 O3) -
(B2 O3) : preparation and crystal structure
;
loop_
_citation_id
_citation_journal_full
_citation_year
_citation_journal_volume
_citation_page_first
_citation_page_last
_citation_journal_id_ASTM
primary 'Solid State Sciences' 2002 4 993 998 SSSCFJ
loop_
_publ_author_name
'Gravereau, P.'
'Chaminade, J.P.'
'Pechev, S.'
'Nikolov, V.'
'Ivanova, D.'
'Peshev, P.'
_cell_length_a 8.9033(3)
_cell_length_b 8.9033(3)
_cell_length_c 8.7131(3)
_cell_angle_alpha 90
_cell_angle_beta 90
_cell_angle_gamma 120
_cell_volume 598.14
_cell_formula_units_Z 1
_symmetry_space_group_name_H-M 'P -6 2 m'
_symmetry_Int_Tables_number 189
_refine_ls_R_factor_all 0.015
loop_
_symmetry_equiv_pos_site_id
_symmetry_equiv_pos_as_xyz
1 '-x, -x+y, -z'
2 'x-y, -y, -z'
3 'y, x, -z'
4 '-x, -x+y, z'
5 'x-y, -y, z'
6 'y, x, z'
7 '-x+y, -x, -z'
8 '-y, x-y, -z'
9 'x, y, -z'
10 '-x+y, -x, z'
11 '-y, x-y, z'
12 'x, y, z'
loop_
_atom_type_symbol
_atom_type_oxidation_number
La3+ 3
Na1+ 1
B3+ 3
O2- -2
loop_
_atom_site_label
_atom_site_type_symbol
_atom_site_symmetry_multiplicity
_atom_site_Wyckoff_symbol
_atom_site_fract_x
_atom_site_fract_y
_atom_site_fract_z
_atom_site_B_iso_or_equiv
_atom_site_occupancy
_atom_site_attached_hydrogens
La1 La3+ 3 g 0.28323(4) 0.28323(4) 0.5 0.0051(1) 1. 0
La2 La3+ 6 i 0.34806(2) 0 0.23333(2) 0.0056(1) 1. 0
Na1 Na1+ 3 f 0.3366(2) 0.3366(2) 0 0.0145(7) 1. 0
B1 B3+ 2 e 0 0 0.2084(8) 0.0075(14) 1. 0
B2 B3+ 2 c 0.6667 0.3333 0 0.0063(15) 1. 0
B3 B3+ 4 h 0.6667 0.3333 0.3234(6) 0.0072(10) 1. 0
O1 O2- 6 i 0.1558(3) 0.1558(3) 0.2120(3) 0.0102(5) 1. 0
O2 O2- 6 j 0.5047(4) 0.1824(4) 0 0.0092(5) 1. 0
O3 O2- 12 l 0.5129(3) 0.3334(2) 0.3171(2) 0.0098(4) 1. 0
O4 O2- 3 g 0.2572(4) 0 0.5 0.0075(7) 1. 0
loop_
_atom_site_aniso_label
_atom_site_aniso_type_symbol
_atom_site_aniso_U_11
_atom_site_aniso_U_22
_atom_site_aniso_U_33
_atom_site_aniso_U_12
_atom_site_aniso_U_13
_atom_site_aniso_U_23
La1 La3+ 0.0052(2) 0.0052(2) 0.0055(2) 0.0032(2) 0. 0.
La2 La3+ 0.0058(1) 0.0057(1) 0.0052(1) 0.0028(1) 0. 0.
Na1 Na1+ 0.011(1) 0.011(1) 0.021(2) 0.006(1) 0. 0.
B1 B3+ 0.009(2) 0.009(2) 0.005(3) 0.004(1) 0. 0.
B2 B3+ 0.008(2) 0.008(2) 0.002(3) 0.004(1) 0. 0.
B3 B3+ 0.009(2) 0.009(2) 0.004(2) 0.004(1) 0. 0.
O1 O2- 0.008(1) 0.008(1) 0.013(1) 0.003(1) -0.001(1) -0.001(1)
O2 O2- 0.007(1) 0.010(1) 0.008(1) 0.002(1) 0. 0.
O3 O2- 0.009(1) 0.009(1) 0.013(1) 0.005(1) 0.001(1) 0.000(1)
O4 O2- 0.009(1) 0.009(2) 0.004(2) 0.005(1) 0. 0.
#End of TTdata_95753-ICSD