
#(C) 2019 by FIZ Karlsruhe - Leibniz Institute for Information Infrastructure.  All rights reserved.
data_9584-ICSD
_database_code_ICSD 9584
_audit_creation_date 1980-01-01
_audit_update_record 1999-01-19
_chemical_name_systematic 'Sodium potassium tecto-alumosilicate *'
_chemical_formula_structural '(Na.56 K3.44) (Al4 Si12 O32)'
_chemical_formula_sum 'Al4 K3.44 Na0.56 O32 Si12'
_chemical_name_structure_type Feldspar#-(MO,C12/m1)-KAlSi3O8
_chemical_name_mineral Sanidine
_exptl_crystal_density_diffrn 2.54
_cell_measurement_temperature 673.
_publ_section_title
'Refinement of the crystal structure of sanidine at 25 and 400 C'
loop_
_citation_id
_citation_journal_full
_citation_year
_citation_journal_volume
_citation_page_first
_citation_page_last
_citation_journal_id_ASTM
primary 'Year Book - Carnegie Institution of Washington' 1974 73 539 544 CIWYAO
loop_
_publ_author_name
'Ohashi, Y.'
'Finger, L.W.'
_cell_length_a 8.603(3)
_cell_length_b 13.011(2)
_cell_length_c 7.175(1)
_cell_angle_alpha 90.
_cell_angle_beta 115.90(2)
_cell_angle_gamma 90.
_cell_volume 722.46
_cell_formula_units_Z 1
_symmetry_space_group_name_H-M 'C 1 2/m 1'
_symmetry_Int_Tables_number 12
_refine_ls_R_factor_all 0.068
loop_
_symmetry_equiv_pos_site_id
_symmetry_equiv_pos_as_xyz
1 '-x, y, -z'
2 '-x, -y, -z'
3 'x, -y, z'
4 'x, y, z'
5 '-x+1/2, y+1/2, -z'
6 '-x+1/2, -y+1/2, -z'
7 'x+1/2, -y+1/2, z'
8 'x+1/2, y+1/2, z'
loop_
_atom_type_symbol
_atom_type_oxidation_number
Na1+ 1
K1+ 1
Al3+ 3
Si4+ 4
O2- -2
loop_
_atom_site_label
_atom_site_type_symbol
_atom_site_symmetry_multiplicity
_atom_site_Wyckoff_symbol
_atom_site_fract_x
_atom_site_fract_y
_atom_site_fract_z
_atom_site_B_iso_or_equiv
_atom_site_occupancy
_atom_site_attached_hydrogens
Na1 Na1+ 4 i 0.2908(5) 0 0.1400(8) 4.7 0.14 0
K1 K1+ 4 i 0.2908(5) 0 0.1400(8) 4.7 0.86 0
Al1 Al3+ 8 j 0.0103(3) 0.1857(2) 0.2238(4) 1.9 0.32 0
Al2 Al3+ 8 j 0.7116(4) 0.1191(2) 0.3460(4) 1.96 0.18 0
Si1 Si4+ 8 j 0.0103(3) 0.1857(2) 0.2238(4) 1.9 0.68 0
Si2 Si4+ 8 j 0.7116(4) 0.1191(2) 0.3460(4) 1.96 0.82 0
O1 O2- 4 g 0 0.1487(8) 0 4.1 1. 0
O2 O2- 4 i 0.6460(12) 0 0.2862(22) 3.3 1. 0
O3 O2- 8 j 0.8318(8) 0.1496(6) 0.2309(10) 3.5 1. 0
O4 O2- 8 j 0.0359(8) 0.3104(5) 0.2600(9) 2.7 1. 0
O5 O2- 8 j 0.1787(8) 0.1271(5) 0.4039(10) 3.2 1. 0
#End of TTdata_9584-ICSD