
#(C) 2019 by FIZ Karlsruhe - Leibniz Institute for Information Infrastructure.  All rights reserved.
data_95858-ICSD
_database_code_ICSD 95858
_audit_creation_date 2004-04-01
_chemical_name_systematic 'Disodium dicalcium disilicate'
_chemical_formula_structural 'Na2 Ca2 (Si2 O7)'
_chemical_formula_sum 'Ca2 Na2 O7 Si2'
_exptl_crystal_density_diffrn 2.93
_publ_section_title

;
The crystal structure of Na2 Ca2 Si2 O7 - a mixed anion silicate with defect
perovskite characteristics
;
loop_
_citation_id
_citation_journal_full
_citation_year
_citation_journal_volume
_citation_page_first
_citation_page_last
_citation_journal_id_ASTM
primary 'Zeitschrift fuer Kristallographie' 2002 217 155 163 ZEKRDZ
loop_
_publ_author_name
'Kahlenberg, V.'
'Hooesch, A.'
_cell_length_a 10.4906(5)
_cell_length_b 10.3762(6)
_cell_length_c 24.5349(12)
_cell_angle_alpha 90
_cell_angle_beta 91.217(6)
_cell_angle_gamma 90
_cell_volume 2670.08
_cell_formula_units_Z 16
_symmetry_space_group_name_H-M 'I 1 2/a 1'
_symmetry_Int_Tables_number 15
_refine_ls_R_factor_all 0.056
loop_
_symmetry_equiv_pos_site_id
_symmetry_equiv_pos_as_xyz
1 'x+1/2, -y, z'
2 '-x, -y, -z'
3 '-x+1/2, y, -z'
4 'x, y, z'
5 'x, -y+1/2, z+1/2'
6 '-x+1/2, -y+1/2, -z+1/2'
7 '-x, y+1/2, -z+1/2'
8 'x+1/2, y+1/2, z+1/2'
loop_
_atom_type_symbol
_atom_type_oxidation_number
Ca2+ 2
Na1+ 1
Ca2+ 2
Na1+ 1
Ca2+ 2
Na1+ 1
Ca2+ 2
Na1+ 1
Ca2+ 2
Na1+ 1
Ca2+ 2
Na1+ 1
Si4+ 4
O2- -2
loop_
_atom_site_label
_atom_site_type_symbol
_atom_site_symmetry_multiplicity
_atom_site_Wyckoff_symbol
_atom_site_fract_x
_atom_site_fract_y
_atom_site_fract_z
_atom_site_B_iso_or_equiv
_atom_site_occupancy
_atom_site_attached_hydrogens
Ca1 Ca2+ 4 e 0.25 0.7408(1) 0 0.0240(3) 1. 0
Ca2 Ca2+ 8 f 0.2562(1) 0.7540(1) 0.8343(1) 0.0342(3) 1. 0
Ca3 Ca2+ 8 f 0.5052(1) 0.7466(1) 0.9228(1) 0.0188(2) 0.714(4) 0
Na1 Na1+ 8 f 0.5052(1) 0.7466(1) 0.9228(1) 0.0188(2) 0.286(4) 0
Ca4 Ca2+ 4 b 0 0.5 0 0.0262(7) 0.522(8) 0
Na2 Na1+ 4 b 0 0.5 0 0.0262(7) 0.478(8) 0
Ca5 Ca2+ 8 f 0.0089(1) 0.5405(1) 0.8233(1) 0.0388(4) 0.786(9) 0
Na3 Na1+ 8 f 0.0089(1) 0.5405(1) 0.8233(1) 0.0388(4) 0.214(9) 0
Ca6 Ca2+ 8 f 0.0175(2) 0.9952(1) 0.8360(1) 0.0341(6) 0.278(9) 0
Na4 Na1+ 8 f 0.0175(2) 0.9952(1) 0.8360(1) 0.0341(6) 0.722(9) 0
Ca7 Ca2+ 4 a 0 0 0 0.0278(8) 0.268(9) 0
Na5 Na1+ 4 a 0 0 0 0.0278(8) 0.732(9) 0
Ca8 Ca2+ 8 f 0.2445(3) 0.4958(2) 0.7494(1) 0.0541(7) 0.327(9) 0
Na6 Na1+ 8 f 0.2445(3) 0.4958(2) 0.7494(1) 0.0541(7) 0.673(9) 0
Na7 Na1+ 4 e 0.75 0.7620(4) 0 0.0476(9) 1. 0
Na8 Na1+ 8 f 0.7534(2) 0.7596(2) 0.8218(1) 0.0553(8) 1. 0
Si1 Si4+ 8 f 0.9651(1) 0.7524(1) 0.9196(1) 0.0200(3) 1. 0
Si2 Si4+ 8 f 0.2626(1) 0.4805(1) 0.9054(1) 0.0176(3) 1. 0
Si3 Si4+ 8 f 0.2664(1) 0.0120(1) 0.9079(1) 0.0179(3) 1. 0
Si4 Si4+ 8 f 0.4992(1) 0.7453(1) 0.7650(1) 0.0196(3) 1. 0
O1 O2- 8 f 0.1311(3) 0.6907(3) 0.7589(1) 0.0371(11) 1. 0
O2 O2- 8 f 0.3329(3) 0.5947(3) 0.9379(1) 0.0384(11) 1. 0
O3 O2- 8 f 0.3209(3) 0.8816(3) 0.9347(1) 0.0387(11) 1. 0
O4 O2- 8 f 0.4901(3) 0.7519(4) 0.8319(1) 0.0424(10) 1. 0
O5 O2- 8 f 0.2476(5) 0.5149(4) 0.8424(1) 0.0517(16) 1. 0
O6 O2- 8 f 0.1421(3) 0.0755(3) 0.9337(1) 0.0377(11) 1. 0
O7 O2- 8 f 0.1389(5) 0.4264(5) 0.9320(2) 0.026(2) 1. 0
O8 O2- 8 f 0.8814(4) 0.6716(5) 0.7548(2) 0.0601(14) 1. 0
O9 O2- 8 f 0.5144(7) 0.5958(3) 0.7487(2) 0.034(2) 1. 0
O10 O2- 8 f 0.8652(6) 0.6412(5) 0.9039(2) 0.039(2) 1. 0
O11 O2- 8 f 0.8864(4) 0.8852(4) 0.9174(2) 0.0274(16) 1. 0
O12 O2- 8 f 0.0191(3) 0.7363(4) 0.9800(1) 0.0422(11) 1. 0
O13 O2- 8 f 0.2534(4) 0.9917(3) 0.8428(1) 0.0389(13) 1. 0
O14 O2- 8 f 0.0629(4) 0.7541(6) 0.8718(2) 0.0316(16) 1. 0
loop_
_atom_site_aniso_label
_atom_site_aniso_type_symbol
_atom_site_aniso_U_11
_atom_site_aniso_U_22
_atom_site_aniso_U_33
_atom_site_aniso_U_12
_atom_site_aniso_U_13
_atom_site_aniso_U_23
Ca1 Ca2+ 0.0239(5) 0.0222(5) 0.0260(6) 0. 0.0064(5) 0.
Ca2 Ca2+ 0.0247(4) 0.0321(4) 0.0453(5) 0.0037(5) -0.0080(4) -0.0068(5)
Ca3 Ca2+ 0.0199(4) 0.0200(4) 0.0164(4) 0.0001(4) -0.0007(3) 0.0005(4)
Na1 Na1+ 0.0199(4) 0.0200(4) 0.0164(4) 0.0001(4) -0.0007(3) 0.0005(4)
Ca4 Ca2+ 0.0291(13) 0.0234(10) 0.0263(11) -0.0045(7) 0.0046(8) -0.0031(7)
Na2 Na1+ 0.0291(13) 0.0234(10) 0.0263(11) -0.0045(7) 0.0046(8) -0.0031(7)
Ca5 Ca2+ 0.0344(8) 0.0464(8) 0.0357(7) -0.0011(5) 0.0064(5) -0.0006(5)
Na3 Na1+ 0.0344(8) 0.0464(8) 0.0357(7) -0.0011(5) 0.0064(5) -0.0006(5)
Ca6 Ca2+ 0.0289(10) 0.0327(10) 0.0408(11) -0.0003(6) 0.0030(8) 0.0037(6)
Na4 Na1+ 0.0289(10) 0.0327(10) 0.0408(11) -0.0003(6) 0.0030(8) 0.0037(6)
Ca7 Ca2+ 0.0283(16) 0.0340(14) 0.0212(13) -0.0053(9) 0.0031(9) 0.0016(8)
Na5 Na1+ 0.0283(16) 0.0340(14) 0.0212(13) -0.0053(9) 0.0031(9) 0.0016(8)
Ca8 Ca2+ 0.0865(15) 0.0580(11) 0.0176(9) -0.0431(11) -0.0015(8) 0.0010(8)
Na6 Na1+ 0.0865(15) 0.0580(11) 0.0176(9) -0.0431(11) -0.0015(8) 0.0010(8)
Na7 Na1+ 0.0429(15) 0.0632(19) 0.0373(15) 0. 0.0137(13) 0.
Na8 Na1+ 0.0701(15) 0.0536(13) 0.0410(12) 0.0205(13) -0.0237(11) -0.0094(11)
Si1 Si4+ 0.0228(5) 0.0167(4) 0.0203(5) 0.0018(5) -0.0034(4) -0.0015(5)
Si2 Si4+ 0.0188(7) 0.0167(5) 0.0172(5) -0.0003(4) -0.0016(5) 0.0003(4)
Si3 Si4+ 0.0182(7) 0.0179(5) 0.0175(5) 0.0029(4) -0.0012(5) -0.0002(4)
Si4 Si4+ 0.0223(5) 0.0204(4) 0.0161(5) -0.0028(5) -0.0013(4) -0.0004(5)
O1 O2- 0.0295(18) 0.0474(19) 0.0341(183) 0.0033(14) -0.0053(16) -0.0044(14)
O2 O2- 0.032(2) 0.0442(18) 0.0393(19) 0.0137(15) 0.0111(16) 0.0195(15)
O3 O2- 0.035(2) 0.0399(18) 0.0417(19) -0.0145(15) 0.0128(17) -0.0197(15)
O4 O2- 0.0343(16) 0.076(2) 0.0167(14) -0.005(2) -0.0007(13) -0.0009(19)
O5 O2- 0.088(4) 0.045(2) 0.0215(17) -0.003(2) -0.011(2) -0.0006(15)
O6 O2- 0.037(2) 0.0375(17) 0.0389(19) -0.0162(15) 0.0113(17) -0.0099(15)
O7 O2- 0.037(4) 0.028(3) 0.012(4) 0.005(3) 0.007(3) 0.006(3)
O8 O2- 0.037(2) 0.099(3) 0.044(2) 0.029(2) -0.0045(19) 0.016(2)
O9 O2- 0.038(6) 0.0284(19) 0.036(2) 0.009(3) -0.011(3) -0.0035(15)
O10 O2- 0.052(5) 0.013(3) 0.053(4) -0.008(3) -0.003(4) 0.010(3)
O11 O2- 0.020(2) 0.025(2) 0.037(4) 0.0098(19) -0.007(3) 0.004(2)
O12 O2- 0.0434(19) 0.060(2) 0.0228(16) 0.0005(19) -0.0055(14) 0.0018(16)
O13 O2- 0.057(3) 0.0404(18) 0.0193(15) -0.0100(17) -0.0008(16) 0.0038(14)
O14 O2- 0.027(2) 0.040(4) 0.028(2) 0.009(3) 0.0087(19) -0.007(3)
#End of TTdata_95858-ICSD