
#(C) 2019 by FIZ Karlsruhe - Leibniz Institute for Information Infrastructure.  All rights reserved.
data_95889-ICSD
_database_code_ICSD 95889
_audit_creation_date 2004-04-01
_chemical_name_systematic
'Sodium lithium iron(III) catena-disilicate (0.1/0.9/1/1)'
_chemical_formula_structural '(Na0.101 Li0.899) Fe (Si2 O6)'
_chemical_formula_sum 'Fe1 Li0.899 Na0.101 O6 Si2'
_chemical_name_structure_type Pyroxene-CaMg(SiO3)2
_chemical_name_mineral 'Aegirine-(Li) solution'
_exptl_crystal_density_diffrn 3.42
_cell_measurement_temperature 175.
_publ_section_title

;
Structural variations in the aegirine solid-solution series (Na, Li) Fe Si2 O6
at 298 K and 80 K
;
loop_
_citation_id
_citation_journal_full
_citation_year
_citation_journal_volume
_citation_page_first
_citation_page_last
_citation_journal_id_ASTM
primary 'Zeitschrift fuer Kristallographie' 2002 217 63 72 ZEKRDZ
loop_
_publ_author_name
'Redhammer, G.J.'
'Roth, G.'
_cell_length_a 9.674(3)
_cell_length_b 8.709(2)
_cell_length_c 5.304(2)
_cell_angle_alpha 90
_cell_angle_beta 109.78(3)
_cell_angle_gamma 90
_cell_volume 420.5
_cell_formula_units_Z 4
_symmetry_space_group_name_H-M 'C 1 2/c 1'
_symmetry_Int_Tables_number 15
_refine_ls_R_factor_all 0.0192
loop_
_symmetry_equiv_pos_site_id
_symmetry_equiv_pos_as_xyz
1 'x, -y, z+1/2'
2 '-x, -y, -z'
3 '-x, y, -z+1/2'
4 'x, y, z'
5 'x+1/2, -y+1/2, z+1/2'
6 '-x+1/2, -y+1/2, -z'
7 '-x+1/2, y+1/2, -z+1/2'
8 'x+1/2, y+1/2, z'
loop_
_atom_type_symbol
_atom_type_oxidation_number
Fe3+ 3
Na1+ 1
Li1+ 1
Si4+ 4
O2- -2
loop_
_atom_site_label
_atom_site_type_symbol
_atom_site_symmetry_multiplicity
_atom_site_Wyckoff_symbol
_atom_site_fract_x
_atom_site_fract_y
_atom_site_fract_z
_atom_site_B_iso_or_equiv
_atom_site_occupancy
_atom_site_attached_hydrogens
Fe1 Fe3+ 4 e 0 0.8984(1) 0.25 0.003(1) 1. 0
Na1 Na1+ 4 e 0 0.2716(5) 0.25 0.019(1) 0.101 0
Li1 Li1+ 4 e 0 0.2716(5) 0.25 0.019(1) 0.899 0
Si1 Si4+ 8 f 0.2959(1) 0.0894(1) 0.2625(1) 0.002(1) 1. 0
O1 O2- 8 f 0.1160(2) 0.0843(1) 0.1483(3) 0.004(1) 1. 0
O2 O2- 8 f 0.3657(2) 0.2578(1) 0.3238(3) 0.008(1) 1. 0
O3 O2- 8 f 0.3554(2) 0.9996(2) 0.0496(2) 0.008(1) 1. 0
#End of TTdata_95889-ICSD