
#(C) 2019 by FIZ Karlsruhe - Leibniz Institute for Information Infrastructure.  All rights reserved.
data_95890-ICSD
_database_code_ICSD 95890
_audit_creation_date 2004-04-01
_chemical_name_systematic
'Sodium lithium iron(III) catena-disilicate (0.1/0.9/1/1)'
_chemical_formula_structural '(Na0.101 Li0.899) Fe (Si2 O6)'
_chemical_formula_sum 'Fe1 Li0.899 Na0.101 O6 Si2'
_chemical_name_structure_type Pyroxene-MgSiO3-LT
_chemical_name_mineral 'Aegirine-(Li) solution'
_exptl_crystal_density_diffrn 3.42
_cell_measurement_temperature 160.
_publ_section_title

;
Structural variations in the aegirine solid-solution series (Na, Li) Fe Si2 O6
at 298 K and 80 K
;
loop_
_citation_id
_citation_journal_full
_citation_year
_citation_journal_volume
_citation_page_first
_citation_page_last
_citation_journal_id_ASTM
primary 'Zeitschrift fuer Kristallographie' 2002 217 63 72 ZEKRDZ
loop_
_publ_author_name
'Redhammer, G.J.'
'Roth, G.'
_cell_length_a 9.687(3)
_cell_length_b 8.716(2)
_cell_length_c 5.302(2)
_cell_angle_alpha 90
_cell_angle_beta 109.85(3)
_cell_angle_gamma 90
_cell_volume 421.06
_cell_formula_units_Z 4
_symmetry_space_group_name_H-M 'P 1 21/c 1'
_symmetry_Int_Tables_number 14
_refine_ls_R_factor_all 0.0204
loop_
_symmetry_equiv_pos_site_id
_symmetry_equiv_pos_as_xyz
1 'x, -y+1/2, z+1/2'
2 '-x, -y, -z'
3 '-x, y+1/2, -z+1/2'
4 'x, y, z'
loop_
_atom_type_symbol
_atom_type_oxidation_number
Fe3+ 3
Na1+ 1
Li1+ 1
Si4+ 4
O2- -2
loop_
_atom_site_label
_atom_site_type_symbol
_atom_site_symmetry_multiplicity
_atom_site_Wyckoff_symbol
_atom_site_fract_x
_atom_site_fract_y
_atom_site_fract_z
_atom_site_B_iso_or_equiv
_atom_site_occupancy
_atom_site_attached_hydrogens
Fe1 Fe3+ 4 e 0.2499(1) 0.6485(1) 0.2458(1) 0.0010(1) 1. 0
Na1 Na1+ 4 e 0.2515(6) 0.0198(4) 0.2580(8) 0.0172(9) 0.101 0
Li1 Li1+ 4 e 0.2515(6) 0.0198(4) 0.2580(8) 0.0172(9) 0.899 0
Si1 Si4+ 4 e 0.0462(1) 0.3394(1) 0.2661(2) 0.0010(3) 1. 0
Si2 Si4+ 4 e 0.5463(1) 0.8394(2) 0.2598(2) 0.0013(3) 1. 0
O1 O2- 4 e 0.8660(3) 0.3335(4) 0.1520(5) 0.0032(6) 1. 0
O2 O2- 4 e 0.3660(4) 0.8347(4) 0.1442(5) 0.0015(6) 1. 0
O3 O2- 4 e 0.1154(4) 0.5088(4) 0.3199(5) 0.0030(7) 1. 0
O4 O2- 4 e 0.6162(4) 0.0077(4) 0.3313(6) 0.0065(7) 1. 0
O5 O2- 4 e 0.1059(4) 0.2546(3) 0.5580(4) 0.0042(7) 1. 0
O6 O2- 4 e 0.6059(4) 0.7420(3) 0.5397(5) 0.0053(7) 1. 0
#End of TTdata_95890-ICSD