
#(C) 2019 by FIZ Karlsruhe - Leibniz Institute for Information Infrastructure.  All rights reserved.
data_95902-ICSD
_database_code_ICSD 95902
_audit_creation_date 2004-04-01
_audit_update_record 2010-08-01
_chemical_name_systematic 'Pentasodium cobaltate(I) carbonate'
_chemical_formula_structural 'Na5 (Co O2) (C O3)'
_chemical_formula_sum 'C1 Co1 Na5 O5'
_chemical_name_structure_type Na5CoO2CO3
_exptl_crystal_density_diffrn 2.48
_publ_section_title 'Synthesis and characterisation of Na5 (Co O2) C O3'
loop_
_citation_id
_citation_journal_full
_citation_year
_citation_journal_volume
_citation_page_first
_citation_page_last
_citation_journal_id_ASTM
primary 'Zeitschrift fuer Naturforschung, B: A Journal of Chemical Sciences'
2002 57 1461 1463 ZNBSEN
loop_
_publ_author_name
'Sofin, M.'
'Peters, E.M.'
'Jansen, M.'
_cell_length_a 4.6467(4)
_cell_length_b 4.6467(4)
_cell_length_c 8.2577(6)
_cell_angle_alpha 90
_cell_angle_beta 90
_cell_angle_gamma 90
_cell_volume 178.3
_cell_formula_units_Z 1
_symmetry_space_group_name_H-M 'P 4/m m m'
_symmetry_Int_Tables_number 123
_refine_ls_R_factor_all 0.0436
loop_
_symmetry_equiv_pos_site_id
_symmetry_equiv_pos_as_xyz
1 'y, x, -z'
2 '-y, -x, -z'
3 '-y, x, -z'
4 'y, -x, -z'
5 '-x, y, -z'
6 'x, -y, -z'
7 'x, y, -z'
8 '-x, -y, -z'
9 '-y, -x, z'
10 'y, x, z'
11 'y, -x, z'
12 '-y, x, z'
13 'x, -y, z'
14 '-x, y, z'
15 '-x, -y, z'
16 'x, y, z'
loop_
_atom_type_symbol
_atom_type_oxidation_number
Co1+ 1
Na1+ 1
O2- -2
C4+ 4
loop_
_atom_site_label
_atom_site_type_symbol
_atom_site_symmetry_multiplicity
_atom_site_Wyckoff_symbol
_atom_site_fract_x
_atom_site_fract_y
_atom_site_fract_z
_atom_site_B_iso_or_equiv
_atom_site_occupancy
_atom_site_attached_hydrogens
Co1 Co1+ 1 a 0 0 0 . 1. 0
Na1 Na1+ 1 b 0 0 0.5 . 1. 0
Na2 Na1+ 4 i 0 0.5 0.2403(3) . 1. 0
O1 O2- 2 g 0 0 0.2125(6) . 1. 0
O2 O2- 2 h 0.5 0.5 0.345(2) . 0.5 0
O3 O2- 4 o 0.5 0.195(3) 0.5 . 0.5 0
C1 C4+ 1 d 0.5 0.5 0.5 . 1. 0
loop_
_atom_site_aniso_label
_atom_site_aniso_type_symbol
_atom_site_aniso_U_11
_atom_site_aniso_U_22
_atom_site_aniso_U_33
_atom_site_aniso_U_12
_atom_site_aniso_U_13
_atom_site_aniso_U_23
Co1 Co1+ 0.0174(6) 0.0174(6) 0.0149(7) 0. 0. 0.
Na1 Na1+ 0.0362(16) 0.0362(16) 0.0182(19) 0. 0. 0.
Na2 Na1+ 0.0678(20) 0.0142(11) 0.0384(13) 0. 0. 0.
O1 O2- 0.0183(15) 0.0183(15) 0.0179(21) 0. 0. 0.
O2 O2- 0.0670(79) 0.0670(79) 0.0723(125) 0. 0. 0.
O3 O2- 0.0503(84) 0.0435(76) 0.0530(79) 0. 0. 0.
C1 C4+ 0.0614(78) 0.0614(78) 0.0452(92) 0. 0. 0.
#End of TTdata_95902-ICSD