
#(C) 2019 by FIZ Karlsruhe - Leibniz Institute for Information Infrastructure.  All rights reserved.
data_96059-ICSD
_database_code_ICSD 96059
_audit_creation_date 2004-04-01
_chemical_name_systematic 'Sodium barium diindium tris(phosphate(V))'
_chemical_formula_structural 'Na Ba In2 (P O4)3'
_chemical_formula_sum 'Ba1 In2 Na1 O12 P3'
_chemical_name_structure_type Langbeinite-K2Mg2(SO4)3
_exptl_crystal_density_diffrn 4.45
_publ_section_title

;
A powder diffraction study of M(I) Ba In2 (P O4)3 (M(I) = Na, K, Cs) with a
langbeinite-type structure
;
loop_
_citation_id
_citation_journal_full
_citation_year
_citation_journal_volume
_citation_page_first
_citation_page_last
_citation_journal_id_ASTM
primary 'Powder Diffraction' 2002 17 1 6 PODIE2
loop_
_publ_author_name
'Louer, D.'
'Moise, V.'
'Liegeois-Duyckaerts, M.'
'Rulmont, A.'
_cell_length_a 10.02794(6)
_cell_length_b 10.02794(6)
_cell_length_c 10.02794(6)
_cell_angle_alpha 90
_cell_angle_beta 90
_cell_angle_gamma 90
_cell_volume 1008.41
_cell_formula_units_Z 4
_symmetry_space_group_name_H-M 'P 21 3'
_symmetry_Int_Tables_number 198
_refine_ls_R_factor_all 0.061
loop_
_symmetry_equiv_pos_site_id
_symmetry_equiv_pos_as_xyz
1 '-z+1/2, -x, y+1/2'
2 '-y+1/2, -z, x+1/2'
3 '-x+1/2, -y, z+1/2'
4 '-z, x+1/2, -y+1/2'
5 '-y, z+1/2, -x+1/2'
6 '-x, y+1/2, -z+1/2'
7 'z+1/2, -x+1/2, -y'
8 'y+1/2, -z+1/2, -x'
9 'x+1/2, -y+1/2, -z'
10 'z, x, y'
11 'y, z, x'
12 'x, y, z'
loop_
_atom_type_symbol
_atom_type_oxidation_number
Na1+ 1
Ba2+ 2
Na1+ 1
Ba2+ 2
In3+ 3
P5+ 5
O2- -2
loop_
_atom_site_label
_atom_site_type_symbol
_atom_site_symmetry_multiplicity
_atom_site_Wyckoff_symbol
_atom_site_fract_x
_atom_site_fract_y
_atom_site_fract_z
_atom_site_B_iso_or_equiv
_atom_site_occupancy
_atom_site_attached_hydrogens
Na1 Na1+ 4 a 0.8170(4) 0.8170(4) 0.8170(4) 2.7(2) 0.453(12) 0
Ba1 Ba2+ 4 a 0.8170(4) 0.8170(4) 0.8170(4) 2.7(2) 0.547(12) 0
Na2 Na1+ 4 a 0.0509(5) 0.0509(5) 0.0509(5) 2.7(2) 0.530(12) 0
Ba2 Ba2+ 4 a 0.0509(5) 0.0509(5) 0.0509(5) 2.7(2) 0.470(12) 0
In1 In3+ 4 a 0.3336(3) 0.3336(3) 0.3336(3) 2.10(7) 1. 0
In2 In3+ 4 a 0.5946(3) 0.5946(3) 0.5946(3) 2.10(7) 1. 0
P1 P5+ 12 b 0.220(1) 0.377(1) 0.015(1) 1.2(2) 1. 0
O1 O2- 12 b 0.311(4) 0.290(4) -0.059(4) 6.0(5) 1. 0
O2 O2- 12 b 0.083(4) 0.292(4) 0.017(4) 6.0(5) 1. 0
O3 O2- 12 b 0.195(4) 0.474(4) -0.087(4) 6.0(5) 1. 0
O4 O2- 12 b 0.272(3) 0.423(3) 0.152(4) 6.0(5) 1. 0
#End of TTdata_96059-ICSD