
#(C) 2019 by FIZ Karlsruhe - Leibniz Institute for Information Infrastructure.  All rights reserved.
data_96476-ICSD
_database_code_ICSD 96476
_audit_creation_date 2004-04-01
_audit_update_record 2006-04-01
_chemical_name_systematic 'Trisodium hexafluoroaluminate'
_chemical_formula_structural 'Na3 (Al F6)'
_chemical_formula_sum 'Al1 F6 Na3'
_chemical_name_structure_type Perovskite-Na3AlF6
_chemical_name_mineral Cryolite
_exptl_crystal_density_diffrn 2.97
_publ_section_title
'The crystal structure of synthetic simmonsite, Na2 Li Al F6'
loop_
_citation_id
_citation_journal_full
_citation_year
_citation_journal_volume
_citation_page_first
_citation_page_last
_citation_journal_id_ASTM
primary 'Journal of Solid State Chemistry' 2003 172 95 101 JSSCBI
loop_
_publ_author_name
'Ross, K.C.'
'Mitchell, R.H.'
'Chakhmouradian, A.R.'
_cell_length_a 5.4058(2)
_cell_length_b 5.5926(2)
_cell_length_c 7.7699(3)
_cell_angle_alpha 90
_cell_angle_beta 90.195(1)
_cell_angle_gamma 90
_cell_volume 234.9
_cell_formula_units_Z 2
_symmetry_space_group_name_H-M 'P 1 21/n 1'
_symmetry_Int_Tables_number 14
_refine_ls_R_factor_all 0.0641
loop_
_symmetry_equiv_pos_site_id
_symmetry_equiv_pos_as_xyz
1 '-x+1/2, y+1/2, -z+1/2'
2 '-x, -y, -z'
3 'x+1/2, -y+1/2, z+1/2'
4 'x, y, z'
loop_
_atom_type_symbol
_atom_type_oxidation_number
Al3+ 3
Na1+ 1
F1- -1
loop_
_atom_site_label
_atom_site_type_symbol
_atom_site_symmetry_multiplicity
_atom_site_Wyckoff_symbol
_atom_site_fract_x
_atom_site_fract_y
_atom_site_fract_z
_atom_site_B_iso_or_equiv
_atom_site_occupancy
_atom_site_attached_hydrogens
Al1 Al3+ 2 a 0 0 0 0.9(1) 1. 0
Na1 Na1+ 2 b 0 0 0.5 1.4(1) 1. 0
Na2 Na1+ 4 e 0.5119(5) 0.9489(1) 0.2488(7) 2.4(1) 1. 0
F1 F1- 4 e 0.1036(6) 0.0442(6) 0.2196(7) 1.3(2) 1. 0
F2 F1- 4 e 0.7257(7) 0.1741(1) 0.0425(1) 1.9(2) 1. 0
F3 F1- 4 e 0.1693(7) 0.2683(7) -0.0609(6) 1.8(2) 1. 0
#End of TTdata_96476-ICSD