
#(C) 2019 by FIZ Karlsruhe - Leibniz Institute for Information Infrastructure.  All rights reserved.
data_96508-ICSD
_database_code_ICSD 96508
_audit_creation_date 2004-04-01
_chemical_name_systematic 'Disodium strontium oxovanadium(IV) bis(vanadate)'
_chemical_formula_structural 'Na2 Sr (V O) (V O4)2'
_chemical_formula_sum 'Na2 O9 Sr1 V3'
_exptl_crystal_density_diffrn 3.52
_publ_section_title

;
Synthesis, structure and magnetic properties of the new mixed-valence vanadate
Na2 Sr V3 O9
;
loop_
_citation_id
_citation_journal_full
_citation_year
_citation_journal_volume
_citation_page_first
_citation_page_last
_citation_journal_id_ASTM
primary 'Journal of Solid State Chemistry' 2003 173 244 250 JSSCBI
loop_
_publ_author_name
'Shpanchenko, R.V.'
'Chernaya, V.V.'
'Antipov, E.V.'
'Hadermann, J.'
'Kaul, E.E.'
'Geibel, C.'
_cell_length_a 5.416(1)
_cell_length_b 15.040(3)
_cell_length_c 10.051(2)
_cell_angle_alpha 90
_cell_angle_beta 97.03(3)
_cell_angle_gamma 90
_cell_volume 812.57
_cell_formula_units_Z 4
_symmetry_space_group_name_H-M 'P 1 21/c 1'
_symmetry_Int_Tables_number 14
_refine_ls_R_factor_all 0.045
loop_
_symmetry_equiv_pos_site_id
_symmetry_equiv_pos_as_xyz
1 'x, -y+1/2, z+1/2'
2 '-x, -y, -z'
3 '-x, y+1/2, -z+1/2'
4 'x, y, z'
loop_
_atom_type_symbol
_atom_type_oxidation_number
Sr2+ 2
Na1+ 1
V4+ 4
V5+ 5
O2- -2
loop_
_atom_site_label
_atom_site_type_symbol
_atom_site_symmetry_multiplicity
_atom_site_Wyckoff_symbol
_atom_site_fract_x
_atom_site_fract_y
_atom_site_fract_z
_atom_site_B_iso_or_equiv
_atom_site_occupancy
_atom_site_attached_hydrogens
Sr1 Sr2+ 4 e 0.2561(2) 0.61247(8) 0.0300(1) 0.71(3) 1. 0
Na1 Na1+ 4 e 0.247(1) 0.5677(4) 0.4768(6) 1.9(1) 1. 0
Na2 Na1+ 4 e 0.759(1) 0.7899(3) 0.9686(5) 1.4(1) 1. 0
V1 V4+ 4 e 0.2896(4) 0.4010(1) 0.2143(2) 0.51(4) 1. 0
V2 V5+ 4 e 0.2132(4) 0.4524(1) 0.7957(2) 0.51(4) 1. 0
V3 V5+ 4 e 0.2163(4) 0.7370(1) 0.7552(2) 0.54(5) 1. 0
O1 O2- 4 e 0.483(2) 0.5143(5) 0.8510(8) 0.7(1) 1. 0
O2 O2- 4 e 0.197(2) 0.7825(6) 0.0912(9) 1.0(2) 1. 0
O3 O2- 4 e 0.031(2) 0.4853(6) 0.1480(8) 0.9(1) 1. 0
O4 O2- 4 e 0.342(2) 0.4095(6) 0.3748(9) 1.2(2) 1. 0
O5 O2- 4 e 0.483(2) 0.6869(5) 0.8420(8) 0.7(1) 1. 0
O6 O2- 4 e 0.182(2) 0.4394(6) 0.6310(9) 1.6(2) 1. 0
O7 O2- 4 e 0.254(2) 0.6545(6) 0.2790(8) 0.8(2) 1. 0
O8 O2- 4 e 0.752(2) 0.6402(6) 0.1128(8) 1.1(2) 1. 0
O9 O2- 4 e 0.965(2) 0.6908(6) 0.8283(9) 1.0(2) 1. 0
loop_
_atom_site_aniso_label
_atom_site_aniso_type_symbol
_atom_site_aniso_B_11
_atom_site_aniso_B_22
_atom_site_aniso_B_33
_atom_site_aniso_B_12
_atom_site_aniso_B_13
_atom_site_aniso_B_23
Sr1 Sr2+ 0.76(4) 0.66(5) 0.70(4) -0.00(4) 0.08(3) 0.07(4)
Na1 Na1+ 1.6(2) 1.7(2) 2.1(2) -0.1(2) -0.2(2) 0.3(2)
Na2 Na1+ 1.7(2) 0.7(2) 1.8(2) 0.1(2) -0.0(2) -0.6(2)
V1 V4+ 0.38(7) 0.56(8) 0.58(8) -0.12(7) 0.09(6) -0.01(7)
V2 V5+ 0.34(8) 0.59(8) 0.70(8) 0.02(6) 0.12(6) 0.05(7)
V3 V5+ 0.52(8) 0.52(8) 0.75(8) -0.14(6) 0.11(6) 0.11(7)
#End of TTdata_96508-ICSD