
#(C) 2019 by FIZ Karlsruhe - Leibniz Institute for Information Infrastructure.  All rights reserved.
data_96669-ICSD
_database_code_ICSD 96669
_audit_creation_date 2004-04-01
_chemical_name_systematic 'Sodium lithium titanium oxide (0.66/0.23/0.77/2)'
_chemical_formula_structural 'Na0.66 (Li0.23 Ti0.77) O2'
_chemical_formula_sum 'Li0.23 Na0.66 O2 Ti0.77'
_exptl_crystal_density_diffrn 3.37
_publ_section_title

;
Crystal growth and crystal structures of the layered ionic conductors - sodium
lithium titanium oxides
;
loop_
_citation_id
_citation_journal_full
_citation_year
_citation_journal_volume
_citation_page_first
_citation_page_last
_citation_journal_id_ASTM
primary 'International Journal of Inorganic Materials' 2000 2 443 449 IJIMCR
loop_
_publ_author_name
'Shilov, G.V.'
'Nalbandyan, V.B.'
'Volochaev, V.A.'
'Atovmyan, L.O.'
_cell_length_a 2.9600(10)
_cell_length_b 2.9600(10)
_cell_length_c 11.127(3)
_cell_angle_alpha 90
_cell_angle_beta 90
_cell_angle_gamma 120
_cell_volume 84.43
_cell_formula_units_Z 2
_symmetry_space_group_name_H-M 'P 63/m m c'
_symmetry_Int_Tables_number 194
_refine_ls_R_factor_all 0.0558
loop_
_symmetry_equiv_pos_site_id
_symmetry_equiv_pos_as_xyz
1 'x, x-y, -z+1/2'
2 '-x+y, y, -z+1/2'
3 '-y, -x, -z+1/2'
4 '-x+y, -x, -z+1/2'
5 '-y, x-y, -z+1/2'
6 'x, y, -z+1/2'
7 '-x, -x+y, z+1/2'
8 'x-y, -y, z+1/2'
9 'y, x, z+1/2'
10 'x-y, x, z+1/2'
11 'y, -x+y, z+1/2'
12 '-x, -y, z+1/2'
13 '-x, -x+y, -z'
14 'x-y, -y, -z'
15 'y, x, -z'
16 'x-y, x, -z'
17 'y, -x+y, -z'
18 '-x, -y, -z'
19 'x, x-y, z'
20 '-x+y, y, z'
21 '-y, -x, z'
22 '-x+y, -x, z'
23 '-y, x-y, z'
24 'x, y, z'
loop_
_atom_type_symbol
_atom_type_oxidation_number
Ti4+ 4
Li1+ 1
O2- -2
Na1+ 1
loop_
_atom_site_label
_atom_site_type_symbol
_atom_site_symmetry_multiplicity
_atom_site_Wyckoff_symbol
_atom_site_fract_x
_atom_site_fract_y
_atom_site_fract_z
_atom_site_B_iso_or_equiv
_atom_site_occupancy
_atom_site_attached_hydrogens
Ti1 Ti4+ 2 a 0 0 0.5 1.10(2) 0.77 0
Li1 Li1+ 2 a 0 0 0 1.10(2) 0.23 0
O1 O2- 4 f 0.3333 0.6667 0.40609(12) 1.08(2) 1. 0
Na1 Na1+ 2 d 0.6667 0.3333 0.25 2.1(2) 0.361(14) 0
Na2 Na1+ 2 b 0 0 0.25 4.4(6) 0.29(3) 0
loop_
_atom_site_aniso_label
_atom_site_aniso_type_symbol
_atom_site_aniso_U_11
_atom_site_aniso_U_22
_atom_site_aniso_U_33
_atom_site_aniso_U_12
_atom_site_aniso_U_13
_atom_site_aniso_U_23
Ti1 Ti4+ 0.0124(2) 0.0124(2) 0.0169(3) 0.0062(1) 0. 0.
Li1 Li1+ 0.0124(2) 0.0124(2) 0.0169(3) 0.0062(1) 0. 0.
O1 O2- 0.0149(4) 0.0149(4) 0.0112(4) 0.0074(2) 0. 0.
Na1 Na1+ 0.034(2) 0.034(2) 0.0087(12) 0.017(1) 0. 0.
Na2 Na1+ 0.058(10) 0.058(10) 0.052(11) 0.029(5) 0. 0.
#End of TTdata_96669-ICSD