
#(C) 2019 by FIZ Karlsruhe - Leibniz Institute for Information Infrastructure.  All rights reserved.
data_97250-ICSD
_database_code_ICSD 97250
_audit_creation_date 2004-10-01
_chemical_name_systematic 'Sodium chromium catena-disilicate'
_chemical_formula_structural 'Na Cr (Si2 O6)'
_chemical_formula_sum 'Cr1 Na1 O6 Si2'
_chemical_name_structure_type Pyroxene-CaMg(SiO3)2
_chemical_name_mineral Kosmochlor
_exptl_crystal_density_diffrn 3.6
_publ_section_title

;
High-pressure crystal structure of kosmochlor, Na Cr Si2 O6, and systematics
of anisotropic compression in pyroxenes
;
loop_
_citation_id
_citation_journal_full
_citation_year
_citation_journal_volume
_citation_page_first
_citation_page_last
_citation_journal_id_ASTM
primary 'American Mineralogist' 2003 88 1025 1032 AMMIAY
loop_
_publ_author_name
'Origlieri, M.'
'Downs, R.T.'
'Thompson, R.M.'
'Pommier, C.J.S.'
'Denton, M.B.'
'Harlow, G.E.'
_cell_length_a 9.5720(3)
_cell_length_b 8.7094(2)
_cell_length_c 5.2678(2)
_cell_angle_alpha 90
_cell_angle_beta 107.498(3)
_cell_angle_gamma 90
_cell_volume 418.84
_cell_formula_units_Z 4
_symmetry_space_group_name_H-M 'C 1 2/c 1'
_symmetry_Int_Tables_number 15
_refine_ls_R_factor_all 0.031
loop_
_symmetry_equiv_pos_site_id
_symmetry_equiv_pos_as_xyz
1 'x, -y, z+1/2'
2 '-x, -y, -z'
3 '-x, y, -z+1/2'
4 'x, y, z'
5 'x+1/2, -y+1/2, z+1/2'
6 '-x+1/2, -y+1/2, -z'
7 '-x+1/2, y+1/2, -z+1/2'
8 'x+1/2, y+1/2, z'
loop_
_atom_type_symbol
_atom_type_oxidation_number
Na1+ 1
Cr3+ 3
Si4+ 4
O2- -2
loop_
_atom_site_label
_atom_site_type_symbol
_atom_site_symmetry_multiplicity
_atom_site_Wyckoff_symbol
_atom_site_fract_x
_atom_site_fract_y
_atom_site_fract_z
_atom_site_B_iso_or_equiv
_atom_site_occupancy
_atom_site_attached_hydrogens
Na1 Na1+ 4 e 0 0.2999(2) 0.25 1.55(4) 1. 0
Cr1 Cr3+ 4 e 0 0.90769(9) 0.25 0.91(2) 1. 0
Si1 Si4+ 8 f 0.29259(9) 0.0918(1) 0.2343(2) 0.92(2) 1. 0
O1 O2- 8 f 0.1137(3) 0.0784(3) 0.1366(5) 1.01(4) 1. 0
O2 O2- 8 f 0.3605(3) 0.2589(3) 0.3033(5) 1.25(4) 1. 0
O3 O2- 8 f 0.3529(3) 0.0095(3) 0.0092(5) 1.14(4) 1. 0
loop_
_atom_site_aniso_label
_atom_site_aniso_type_symbol
_atom_site_aniso_beta_11
_atom_site_aniso_beta_22
_atom_site_aniso_beta_33
_atom_site_aniso_beta_12
_atom_site_aniso_beta_13
_atom_site_aniso_beta_23
Na1 Na1+ 0.0051(3) 0.0045(3) 0.0122(8) 0. -.0005(4) 0.
Cr1 Cr3+ 0.00277(9) 0.0030(1) 0.0078(3) 0. 0.0005(1) 0.
Si1 Si4+ 0.0028(1) 0.0031(1) 0.0081(3) 0.0000(1) 0.0008(2) 0.0000(2)
O1 O2- 0.0027(3) 0.0038(3) 0.0081(8) -.0002(2) 0.0004(4) 0.0004(4)
O2 O2- 0.0038(3) 0.0039(3) 0.0123(9) -.0005(3) 0.0014(4) -.0001(4)
O3 O2- 0.0035(3) 0.0040(3) 0.0097(8) 0.0006(3) 0.0014(4) -.0002(5)
#End of TTdata_97250-ICSD