
#(C) 2019 by FIZ Karlsruhe - Leibniz Institute for Information Infrastructure.  All rights reserved.
data_97293-ICSD
_database_code_ICSD 97293
_audit_creation_date 2004-10-01
_chemical_name_systematic
'Potassium sodium aluminium silicon oxide (1.6/6/7.49/8.51/32)'
_chemical_formula_structural 'K1.6 Na6 (Al7.49 Si8.51 O32)'
_chemical_formula_sum 'Al7.49 K1.6 Na6 O32 Si8.51'
_chemical_name_structure_type KNa3Al4(SiO4)4
_chemical_name_mineral Nepheline
_exptl_crystal_density_diffrn 2.65
_publ_section_title 'The crystal chemistry of nepheline'
loop_
_citation_id
_citation_journal_full
_citation_year
_citation_journal_volume
_citation_page_first
_citation_page_last
_citation_journal_id_ASTM
primary 'Canadian Mineralogist' 2003 41 61 70 CAMIA6
loop_
_publ_author_name
'Tait, K.T.'
'Sokolova, E.'
'Hawthorne, F.C.'
'Khomyakov, A.P.'
_cell_length_a 9.985(1)
_cell_length_b 9.985(1)
_cell_length_c 8.372(1)
_cell_angle_alpha 90
_cell_angle_beta 90
_cell_angle_gamma 120
_cell_volume 722.86
_cell_formula_units_Z 1
_symmetry_space_group_name_H-M 'P 63'
_symmetry_Int_Tables_number 173
_refine_ls_R_factor_all 0.021
loop_
_symmetry_equiv_pos_site_id
_symmetry_equiv_pos_as_xyz
1 'x-y, x, z+1/2'
2 'y, -x+y, z+1/2'
3 '-x, -y, z+1/2'
4 '-x+y, -x, z'
5 '-y, x-y, z'
6 'x, y, z'
loop_
_atom_type_symbol
_atom_type_oxidation_number
K1+ 1
Na1+ 1
Al3+ 3
Si4+ 4
Al3+ 3
Si4+ 4
O2- -2
loop_
_atom_site_label
_atom_site_type_symbol
_atom_site_symmetry_multiplicity
_atom_site_Wyckoff_symbol
_atom_site_fract_x
_atom_site_fract_y
_atom_site_fract_z
_atom_site_B_iso_or_equiv
_atom_site_occupancy
_atom_site_attached_hydrogens
K1 K1+ 2 a 0 0 0.01170(1) 0.0241(3) 0.8 0
Na1 Na1+ 6 c 0.99813(8) 0.55455(8) 0.5174(5) 0.02352(16) 1. 0
Al1 Al3+ 2 b 0.6667 0.3333 0.2114(5) 0.0119(4) 0.935 0
Si1 Si4+ 2 b 0.6667 0.3333 0.2114(5) 0.0119(4) 0.065 0
Si2 Si4+ 2 b 0.3333 0.6667 0.3225(5) 0.0118(3) 1. 0
Si3 Si4+ 6 c 0.75966(12) 0.66575(12) 0.3322(4) 0.01130(20) 1. 0
Al2 Al3+ 6 c 0.09294(12) 0.76047(13) 0.2056(4) 0.01051(22) 0.937 0
Si4 Si4+ 6 c 0.09294(12) 0.76047(13) 0.2056(4) 0.01051(22) 0.063 0
O1 O2- 6 c 0.3720(5) 0.694(4) 0.5091(13) 0.035(3) 0.333 0
O2 O2- 6 c 0.71056(14) 0.68338(17) 0.5121(7) 0.0243(3) 1. 0
O3 O2- 6 c 0.1731(3) 0.6497(4) 0.2621(7) 0.0314(8) 1. 0
O4 O2- 6 c 0.6516(4) 0.4889(3) 0.2759(6) 0.0263(7) 1. 0
O5 O2- 6 c 0.9399(3) 0.7137(3) 0.3328(6) 0.0141(5) 1. 0
O6 O2- 6 c 0.7341(3) 0.7764(4) 0.2111(6) 0.0188(6) 1. 0
loop_
_atom_site_aniso_label
_atom_site_aniso_type_symbol
_atom_site_aniso_U_11
_atom_site_aniso_U_22
_atom_site_aniso_U_33
_atom_site_aniso_U_12
_atom_site_aniso_U_13
_atom_site_aniso_U_23
K1 K1+ 0.0204(3) 0.0204(3) 0.0316(6) 0.01019(14) 0. 0.
Na1 Na1+ 0.0312(4) 0.0241(4) 0.0204(3) 0.0176(3) -.0017(12) 0.0002(11)
Al1 Al3+ 0.0108(5) 0.0108(5) 0.0142(10) 0.0054(3) 0. 0.
Si1 Si4+ 0.0108(5) 0.0108(5) 0.0142(10) 0.0054(3) 0. 0.
Si2 Si4+ 0.0123(5) 0.0123(5) 0.0110(9) 0.00613(23) 0. 0.
Si3 Si4+ 0.0107(4) 0.0109(4) 0.0129(5) 0.0058(4) 0.0004(5) 0.0003(5)
Al2 Al3+ 0.0082(5) 0.0095(5) 0.0127(6) 0.0036(4) 0.0001(5) -.0001(5)
Si4 Si4+ 0.0082(5) 0.0095(5) 0.0127(6) 0.0036(4) 0.0001(5) -.0001(5)
O1 O2- 0.017(3) 0.072(11) 0.012(3) 0.020(5) 0.0070(4) 0.029(6)
O2 O2- 0.0187(6) 0.0462(8) 0.0140(4) 0.0208(6) -.0012(13) 0.0030(18)
O3 O2- 0.0131(13) 0.0119(13) 0.0692(24) 0.0064(11) -.0058(14) 0.0017(13)
O4 O2- 0.0148(13) 0.0113(12) 0.0541(20) 0.0076(11) -.0083(13) -.0078(12)
O5 O2- 0.0090(8) 0.0178(9) 0.0161(11) 0.0072(7) 0.0004(9) -.0012(9)
O6 O2- 0.0223(11) 0.0208(11) 0.0202(12) 0.0159(10) 0.0035(10) 0.0030(11)
#End of TTdata_97293-ICSD