
#(C) 2019 by FIZ Karlsruhe - Leibniz Institute for Information Infrastructure.  All rights reserved.
data_97456-ICSD
_database_code_ICSD 97456
_audit_creation_date 2004-10-01
_chemical_name_systematic 'Sodium palladium tetrathiophosphate(V)'
_chemical_formula_structural 'Na Pd (P S4)'
_chemical_formula_sum 'Na1 P1 Pd1 S4'
_exptl_crystal_density_diffrn 2.94
_cell_measurement_temperature 298.
_publ_section_title

;
Na Pd P S4 and Rb Pd P S4: systems with infinite straight (1 infty)(Pd P
S4)(-) chains soluble in polar solvents and the structure of cubic Rb Pd P S4
(Rb0.33 P0.4 S2.23 Ox)
;
loop_
_citation_id
_citation_journal_full
_citation_year
_citation_journal_volume
_citation_page_first
_citation_page_last
_citation_journal_id_ASTM
primary 'Journal of Solid State Chemistry' 2003 175 133 145 JSSCBI
loop_
_publ_author_name
'Coste, S.'
'Hanko, J.'
'Bujoli-Doeuff, M.'
'Louarn, G.'
'Evain, M.'
'Brec, R.'
'Alonso, B.'
'Jobic, S.'
'Kanatzidis, M.G.'
_cell_length_a 7.3074(8)
_cell_length_b 7.3074(8)
_cell_length_c 12.2308(14)
_cell_angle_alpha 90
_cell_angle_beta 90
_cell_angle_gamma 90
_cell_volume 653.1
_cell_formula_units_Z 4
_symmetry_space_group_name_H-M 'I 4/m c m'
_symmetry_Int_Tables_number 140
_refine_ls_R_factor_all 0.0198
loop_
_symmetry_equiv_pos_site_id
_symmetry_equiv_pos_as_xyz
1 'y, x, -z+1/2'
2 '-y, -x, -z+1/2'
3 '-y, x, -z'
4 'y, -x, -z'
5 'x, -y, -z+1/2'
6 '-x, y, -z+1/2'
7 'x, y, -z'
8 '-x, -y, -z'
9 '-y, -x, z+1/2'
10 'y, x, z+1/2'
11 'y, -x, z'
12 '-y, x, z'
13 '-x, y, z+1/2'
14 'x, -y, z+1/2'
15 '-x, -y, z'
16 'x, y, z'
17 'y+1/2, x+1/2, -z'
18 '-y+1/2, -x+1/2, -z'
19 '-y+1/2, x+1/2, -z+1/2'
20 'y+1/2, -x+1/2, -z+1/2'
21 'x+1/2, -y+1/2, -z'
22 '-x+1/2, y+1/2, -z'
23 'x+1/2, y+1/2, -z+1/2'
24 '-x+1/2, -y+1/2, -z+1/2'
25 '-y+1/2, -x+1/2, z'
26 'y+1/2, x+1/2, z'
27 'y+1/2, -x+1/2, z+1/2'
28 '-y+1/2, x+1/2, z+1/2'
29 '-x+1/2, y+1/2, z'
30 'x+1/2, -y+1/2, z'
31 '-x+1/2, -y+1/2, z+1/2'
32 'x+1/2, y+1/2, z+1/2'
loop_
_atom_type_symbol
_atom_type_oxidation_number
Na1+ 1
Pd2+ 2
P5+ 5
S2- -2
loop_
_atom_site_label
_atom_site_type_symbol
_atom_site_symmetry_multiplicity
_atom_site_Wyckoff_symbol
_atom_site_fract_x
_atom_site_fract_y
_atom_site_fract_z
_atom_site_B_iso_or_equiv
_atom_site_occupancy
_atom_site_attached_hydrogens
Na1 Na1+ 4 a 0 0 0.25 0.0407(12) 1. 0
Pd1 Pd2+ 4 d 0.5 0 0 0.01285(16) 1. 0
P1 P5+ 4 b 0.5 0 0.25 0.0137(4) 1. 0
S1 S2- 16 l 0.34962(8) 0.15038(8) 0.14138(8) 0.0176(2) 1. 0
loop_
_atom_site_aniso_label
_atom_site_aniso_type_symbol
_atom_site_aniso_U_11
_atom_site_aniso_U_22
_atom_site_aniso_U_33
_atom_site_aniso_U_12
_atom_site_aniso_U_13
_atom_site_aniso_U_23
Na1 Na1+ 0.0291(11) 0.0291(11) 0.064(3) 0. 0. 0.
Pd1 Pd2+ 0.0166(2) 0.0166(2) 0.0054(3) 0.00427(19) 0. 0.
P1 P5+ 0.0173(5) 0.0173(5) 0.0065(10) 0. 0. 0.
S1 S2- 0.0220(3) 0.0220(3) 0.0089(5) 0.0081(3) 0.0007(2) -.0007(2)
#End of TTdata_97456-ICSD