
#(C) 2019 by FIZ Karlsruhe - Leibniz Institute for Information Infrastructure.  All rights reserved.
data_97527-ICSD
_database_code_ICSD 97527
_audit_creation_date 2004-10-01
_audit_update_record 2008-08-01
_chemical_name_systematic
'Hexabarium diruthenium(V) disodium dichromium(V) oxide'
_chemical_formula_structural 'Ba6 Ru2 Na2 Cr2 O17'
_chemical_formula_sum 'Ba6 Cr2 Na2 O17 Ru2'
_chemical_name_structure_type Ba6Nd2Ti4O17
_exptl_crystal_density_diffrn 5.51
_cell_measurement_temperature 300.
_publ_section_title

;
Synthesis, crystal structure and characterization of new 12H hexagonal
perovskite-related oxides Ba6 M2 Na2 X2 O17 (M = Ru, Nb, Ta, Sb; X = V, Cr,
Mn, P, As)
;
loop_
_citation_id
_citation_journal_full
_citation_year
_citation_journal_volume
_citation_page_first
_citation_page_last
_citation_journal_id_ASTM
primary 'Journal of Solid State Chemistry' 2003 176 137 150 JSSCBI
loop_
_publ_author_name
'Quarez, E.'
'Abraham, F.'
'Mentre, O.'
_cell_length_a 5.8406(1)
_cell_length_b 5.8406(1)
_cell_length_c 29.5520(5)
_cell_angle_alpha 90
_cell_angle_beta 90
_cell_angle_gamma 120
_cell_volume 873.04
_cell_formula_units_Z 2
_symmetry_space_group_name_H-M 'P 63/m m c'
_symmetry_Int_Tables_number 194
_refine_ls_R_factor_all 0.0307
loop_
_symmetry_equiv_pos_site_id
_symmetry_equiv_pos_as_xyz
1 'x, x-y, -z+1/2'
2 '-x+y, y, -z+1/2'
3 '-y, -x, -z+1/2'
4 '-x+y, -x, -z+1/2'
5 '-y, x-y, -z+1/2'
6 'x, y, -z+1/2'
7 '-x, -x+y, z+1/2'
8 'x-y, -y, z+1/2'
9 'y, x, z+1/2'
10 'x-y, x, z+1/2'
11 'y, -x+y, z+1/2'
12 '-x, -y, z+1/2'
13 '-x, -x+y, -z'
14 'x-y, -y, -z'
15 'y, x, -z'
16 'x-y, x, -z'
17 'y, -x+y, -z'
18 '-x, -y, -z'
19 'x, x-y, z'
20 '-x+y, y, z'
21 '-y, -x, z'
22 '-x+y, -x, z'
23 '-y, x-y, z'
24 'x, y, z'
loop_
_atom_type_symbol
_atom_type_oxidation_number
Ba2+ 2
Ru5+ 5
Cr5+ 5
Na1+ 1
O2- -2
loop_
_atom_site_label
_atom_site_type_symbol
_atom_site_symmetry_multiplicity
_atom_site_Wyckoff_symbol
_atom_site_fract_x
_atom_site_fract_y
_atom_site_fract_z
_atom_site_B_iso_or_equiv
_atom_site_occupancy
_atom_site_attached_hydrogens
Ba1 Ba2+ 4 f 0.3333 0.6667 0.17910(6) 1.44(5) 1. 0
Ba2 Ba2+ 4 f 0.3333 0.6667 0.59247(6) 1.51(5) 1. 0
Ba3 Ba2+ 2 a 0 0 0 2.21(7) 1. 0
Ba4 Ba2+ 2 b 0 0 0.25 1.27(7) 1. 0
Ru1 Ru5+ 4 f 0.3333 0.6667 0.70402(8) 1.24(5) 1. 0
Cr1 Cr5+ 4 f 0.3333 0.6667 0.0523(2) 1.6(1) 1. 0
Na1 Na1+ 4 e 0 0 0.1229(4) 0.3(2) 1. 0
O1 O2- 12 k 0.180(2) 0.360(4) 0.4228(3) 1.7(1) 1. 0
O2 O2- 12 k 0.160(2) 0.320(4) 0.8299(3) 1.7(1) 1. 0
O3 O2- 6 h 0.4995(30) 0.999(6) 0.25 1.7(1) 1. 0
O4 O2- 4 f 0.3333 0.6667 0.5051(6) 1.7(1) 1. 0
#End of TTdata_97527-ICSD