
#(C) 2019 by FIZ Karlsruhe - Leibniz Institute for Information Infrastructure.  All rights reserved.
data_97678-ICSD
_database_code_ICSD 97678
_audit_creation_date 2004-10-01
_chemical_name_systematic
'Rubidium sodium calcium niobium oxide (1/0.86/2/3/10)'
_chemical_formula_structural 'Rb Na0.86 Ca2 (Nb3 O10)'
_chemical_formula_sum 'Ca2 Na0.86 Nb3 O10 Rb1'
_exptl_crystal_density_diffrn 4.79
_publ_section_title

;
Synthesis, structure, magnetic properties and XANES spectra of reduced niobate
Rb Nax Ca2 Nb3 O10
;
loop_
_citation_id
_citation_journal_full
_citation_year
_citation_journal_volume
_citation_page_first
_citation_page_last
_citation_journal_id_ASTM
primary 'Chemistry of Materials' 2003 15 383 389 CMATEX
loop_
_publ_author_name
'Byeon Song-Ho'
'Kim Hee Jin'
'Kim Dong-Kuk'
'Hur Nam Hwi'
_cell_length_a 5.4790(3)
_cell_length_b 5.4790(3)
_cell_length_c 28.8264(9)
_cell_angle_alpha 90
_cell_angle_beta 90
_cell_angle_gamma 90
_cell_volume 865.35
_cell_formula_units_Z 4
_symmetry_space_group_name_H-M 'P 42/n c m Z'
_symmetry_Int_Tables_number 138
_refine_ls_R_factor_all 0.0327
loop_
_symmetry_equiv_pos_site_id
_symmetry_equiv_pos_as_xyz
1 'y+1/2, x+1/2, -z'
2 'y+1/2, -x, -z+1/2'
3 '-y, x+1/2, -z+1/2'
4 '-y, -x, -z'
5 'x+1/2, y+1/2, -z'
6 '-x, y+1/2, -z+1/2'
7 'x+1/2, -y, -z+1/2'
8 '-x, -y, -z'
9 '-y+1/2, -x+1/2, z'
10 '-y+1/2, x, z+1/2'
11 'y, -x+1/2, z+1/2'
12 'y, x, z'
13 '-x+1/2, -y+1/2, z'
14 'x, -y+1/2, z+1/2'
15 '-x+1/2, y, z+1/2'
16 'x, y, z'
loop_
_atom_type_symbol
_atom_type_oxidation_number
Rb1+ 1
Na1+ 1
Ca2+ 2
Nb4+ 4.713
O2- -2
loop_
_atom_site_label
_atom_site_type_symbol
_atom_site_symmetry_multiplicity
_atom_site_Wyckoff_symbol
_atom_site_fract_x
_atom_site_fract_y
_atom_site_fract_z
_atom_site_B_iso_or_equiv
_atom_site_occupancy
_atom_site_attached_hydrogens
Rb1 Rb1+ 8 i 0.048(2) 0.048(4) 0.2804(8) 1. 0.5 0
Na1 Na1+ 8 i 0.27(1) 0.27(1) 0.226(1) 1. 0.43(3) 0
Ca1 Ca2+ 8 i 0.514(2) -0.014(2) 0.0754(3) 1.1(2) 1. 0
Nb1 Nb4+ 8 i 0.5001(9) 0.5001(9) 0.1456(1) 0.52(5) 1. 0
Nb2 Nb4+ 4 d 0 0 0 0.93(7) 1. 0
O1 O2- 4 e 0.25 0.25 0.158(2) 1. 1. 0
O2 O2- 8 i 0.033(5) 0.467(5) 0.2913(8) 1. 1. 0
O3 O2- 8 i 0.067(4) 0.067(4) 0.0689(8) 1. 1. 0
O4 O2- 4 e 0.75 0.75 0.120(2) 1. 1. 0
O5 O2- 8 f 0.75 0.25 0.133(1) 1. 1. 0
O6 O2- 8 g 0.159(8) 0.659(6) 0 1. 0.5 0
O7 O2- 8 i 0.321(8) 0.179(8) 0.975(2) 1. 0.5 0
#End of TTdata_97678-ICSD