
#(C) 2019 by FIZ Karlsruhe - Leibniz Institute for Information Infrastructure.  All rights reserved.
data_97672-ICSD
_database_code_ICSD 97672
_audit_creation_date 2004-10-01
_chemical_name_systematic 'Sodium titanium niobium oxide (1/0.15/0.85/2.93)'
_chemical_formula_structural 'Na ((Ti0.15 Nb0.85) O2.925)'
_chemical_formula_sum 'Na1 Nb0.85 O2.925 Ti0.15'
_chemical_name_structure_type Perovskite-NaNbO3
_exptl_crystal_density_diffrn 4.36
_publ_section_title

;
A new series of oxygen-deficient perovskites in the Na Tix Nb1-x O3-0.5x
system: synthesis, crystal chemistry and energetics
;
loop_
_citation_id
_citation_journal_full
_citation_year
_citation_journal_volume
_citation_page_first
_citation_page_last
_citation_journal_id_ASTM
primary 'Chemistry of Materials' 2003 15 1872 1878 CMATEX
loop_
_publ_author_name
'Xu Hongwu'
'Su Ya-L'
'Balmer, M.L.'
'Navrotsky, A.'
_cell_length_a 5.5396(4)
_cell_length_b 15.5705(11)
_cell_length_c 5.5087(4)
_cell_angle_alpha 90
_cell_angle_beta 90
_cell_angle_gamma 90
_cell_volume 475.15
_cell_formula_units_Z 8
_symmetry_space_group_name_H-M 'P b m a'
_symmetry_Int_Tables_number 57
_refine_ls_R_factor_all 0.03
loop_
_symmetry_equiv_pos_site_id
_symmetry_equiv_pos_as_xyz
1 '-x+1/2, y+1/2, z'
2 'x+1/2, y, -z'
3 'x, -y+1/2, z'
4 '-x, -y, -z'
5 'x+1/2, -y+1/2, -z'
6 '-x+1/2, -y, z'
7 '-x, y+1/2, -z'
8 'x, y, z'
loop_
_atom_type_symbol
_atom_type_oxidation_number
Na1+ 1
Nb5+ 5
Ti4+ 4
O2- -2
loop_
_atom_site_label
_atom_site_type_symbol
_atom_site_symmetry_multiplicity
_atom_site_Wyckoff_symbol
_atom_site_fract_x
_atom_site_fract_y
_atom_site_fract_z
_atom_site_B_iso_or_equiv
_atom_site_occupancy
_atom_site_attached_hydrogens
Na1 Na1+ 4 c 0.75 0 0.238(1) 0.0090(6) 1. 0
Na2 Na1+ 4 d 0.744(2) 0.25 0.254(2) 0.0090(6) 1. 0
Nb1 Nb5+ 8 e 0.2602(6) 0.1252(2) 0.2377(3) 0.0030(2) 0.85 0
Ti1 Ti4+ 8 e 0.2602(6) 0.1252(2) 0.2377(3) 0.0030(2) 0.15 0
O1 O2- 4 c 0.25 0 0.2688(8) 0.0074(2) 0.95 0
O2 O2- 4 d 0.2518(15) 0.25 0.1715(9) 0.0074(2) 1. 0
O3 O2- 8 e 0.0570(6) 0.1370(2) 0.5384(8) 0.0074(2) 0.95 0
O4 O2- 8 e 0.4909(9) 0.1072(2) -0.0242(9) 0.0074(2) 1. 0
#End of TTdata_97672-ICSD