
#(C) 2019 by FIZ Karlsruhe - Leibniz Institute for Information Infrastructure.  All rights reserved.
data_97677-ICSD
_database_code_ICSD 97677
_audit_creation_date 2004-10-01
_chemical_name_systematic 'Sodium dicalcium triniobate - beta'
_chemical_formula_structural 'Na Ca2 (Nb3 O10)'
_chemical_formula_sum 'Ca2 Na1 Nb3 O10'
_exptl_crystal_density_diffrn 4.14
_publ_section_title

;
Synthesis, structure, magnetic properties and XANES spectra of reduced niobate
Rb Nax Ca2 Nb3 O10
;
loop_
_citation_id
_citation_journal_full
_citation_year
_citation_journal_volume
_citation_page_first
_citation_page_last
_citation_journal_id_ASTM
primary 'Chemistry of Materials' 2003 15 383 389 CMATEX
loop_
_publ_author_name
'Byeon Song-Ho'
'Kim Hee Jin'
'Kim Dong-Kuk'
'Hur Nam Hwi'
_cell_length_a 5.4731(2)
_cell_length_b 5.4731(2)
_cell_length_c 29.0138(9)
_cell_angle_alpha 90
_cell_angle_beta 90
_cell_angle_gamma 90
_cell_volume 869.1
_cell_formula_units_Z 4
_symmetry_space_group_name_H-M 'P 42/n c m Z'
_symmetry_Int_Tables_number 138
_refine_ls_R_factor_all 0.0307
loop_
_symmetry_equiv_pos_site_id
_symmetry_equiv_pos_as_xyz
1 'y+1/2, x+1/2, -z'
2 'y+1/2, -x, -z+1/2'
3 '-y, x+1/2, -z+1/2'
4 '-y, -x, -z'
5 'x+1/2, y+1/2, -z'
6 '-x, y+1/2, -z+1/2'
7 'x+1/2, -y, -z+1/2'
8 '-x, -y, -z'
9 '-y+1/2, -x+1/2, z'
10 '-y+1/2, x, z+1/2'
11 'y, -x+1/2, z+1/2'
12 'y, x, z'
13 '-x+1/2, -y+1/2, z'
14 'x, -y+1/2, z+1/2'
15 '-x+1/2, y, z+1/2'
16 'x, y, z'
loop_
_atom_type_symbol
_atom_type_oxidation_number
Na1+ 1
Ca2+ 2
Nb5+ 5
O2- -2
loop_
_atom_site_label
_atom_site_type_symbol
_atom_site_symmetry_multiplicity
_atom_site_Wyckoff_symbol
_atom_site_fract_x
_atom_site_fract_y
_atom_site_fract_z
_atom_site_B_iso_or_equiv
_atom_site_occupancy
_atom_site_attached_hydrogens
Na1 Na1+ 8 i 0.24(2) 0.24(2) 0.2403(7) 2.6(6) 0.5 0
Ca1 Ca2+ 8 i 0.4944(9) 0.0056(9) 0.0767(2) 0.76(8) 1. 0
Nb1 Nb5+ 8 i 0.5064(7) 0.5064(7) 0.1452(2) 0.12(9) 1. 0
Nb2 Nb5+ 4 d 0 0 0 0.14(9) 1. 0
O1 O2- 4 e 0.25 0.25 0.1426(5) 2.1(3) 1. 0
O2 O2- 8 i 0.0324(7) 0.4676(7) 0.2942(2) 0.30(8) 1. 0
O3 O2- 8 i 0.0459(8) 0.0459(8) 0.0645(3) 1.8(1) 1. 0
O4 O2- 4 e 0.75 0.75 0.1227(3) 0.23(9) 1. 0
O5 O2- 8 f 0.75 0.25 0.1307(2) 0.62(2) 1. 0
O6 O2- 8 g 0.192(2) 0.692(2) 0 1.8(4) 0.5 0
O7 O2- 8 i 0.310(1) 0.190(1) 0.9845(5) 0.2(3) 0.5 0
#End of TTdata_97677-ICSD