
#(C) 2019 by FIZ Karlsruhe - Leibniz Institute for Information Infrastructure.  All rights reserved.
data_97670-ICSD
_database_code_ICSD 97670
_audit_creation_date 2004-10-01
_chemical_name_systematic 'Sodium titanium niobium oxide (1/0.05/0.95/2.98)'
_chemical_formula_structural 'Na ((Ti0.05 Nb0.95) O2.975)'
_chemical_formula_sum 'Na1 Nb0.95 O2.975 Ti0.05'
_chemical_name_structure_type Perovskite-NaNbO3
_exptl_crystal_density_diffrn 4.5
_publ_section_title

;
A new series of oxygen-deficient perovskites in the Na Tix Nb1-x O3-0.5x
system: synthesis, crystal chemistry and energetics
;
loop_
_citation_id
_citation_journal_full
_citation_year
_citation_journal_volume
_citation_page_first
_citation_page_last
_citation_journal_id_ASTM
primary 'Chemistry of Materials' 2003 15 1872 1878 CMATEX
loop_
_publ_author_name
'Xu Hongwu'
'Su Ya-L'
'Balmer, M.L.'
'Navrotsky, A.'
_cell_length_a 5.5528(5)
_cell_length_b 15.5597(11)
_cell_length_c 5.5140(5)
_cell_angle_alpha 90
_cell_angle_beta 90
_cell_angle_gamma 90
_cell_volume 476.41
_cell_formula_units_Z 8
_symmetry_space_group_name_H-M 'P b m a'
_symmetry_Int_Tables_number 57
_refine_ls_R_factor_all 0.028
loop_
_symmetry_equiv_pos_site_id
_symmetry_equiv_pos_as_xyz
1 '-x+1/2, y+1/2, z'
2 'x+1/2, y, -z'
3 'x, -y+1/2, z'
4 '-x, -y, -z'
5 'x+1/2, -y+1/2, -z'
6 '-x+1/2, -y, z'
7 '-x, y+1/2, -z'
8 'x, y, z'
loop_
_atom_type_symbol
_atom_type_oxidation_number
Na1+ 1
Nb5+ 5
Ti4+ 4
O2- -2
loop_
_atom_site_label
_atom_site_type_symbol
_atom_site_symmetry_multiplicity
_atom_site_Wyckoff_symbol
_atom_site_fract_x
_atom_site_fract_y
_atom_site_fract_z
_atom_site_B_iso_or_equiv
_atom_site_occupancy
_atom_site_attached_hydrogens
Na1 Na1+ 4 c 0.75 0 0.230(4) 0.0165(7) 1. 0
Na2 Na1+ 4 d 0.742(3) 0.25 0.248(4) 0.0165(7) 1. 0
Nb1 Nb5+ 8 e 0.2598(5) 0.1267(2) 0.2415(5) 0.0045(2) 0.95 0
Ti1 Ti4+ 8 e 0.2598(5) 0.1267(2) 0.2415(5) 0.0045(2) 0.05 0
O1 O2- 4 c 0.25 0 0.2944(10) 0.0069(2) 0.9833 0
O2 O2- 4 d 0.2485(16) 0.25 0.1796(9) 0.0069(2) 1. 0
O3 O2- 8 e 0.0699(6) 0.1387(2) 0.5433(7) 0.0069(2) 0.9833 0
O4 O2- 8 e 0.4948(10) 0.1090(2) -0.0176(8) 0.0069(2) 1. 0
#End of TTdata_97670-ICSD