
#(C) 2019 by FIZ Karlsruhe - Leibniz Institute for Information Infrastructure.  All rights reserved.
data_98049-ICSD
_database_code_ICSD 98049
_audit_creation_date 2004-10-01
_chemical_name_systematic
'Sodium potassium bismuth titanate (0.3/0.2/0.5/1) - HT'
_chemical_formula_structural '(Na0.6 K0.4)0.5 Bi0.5 (Ti O3)'
_chemical_formula_sum 'Bi0.5 K0.2 Na0.3 O3 Ti1'
_chemical_name_structure_type Perovskite-PbTiO3
_exptl_crystal_density_diffrn 5.99
_cell_measurement_temperature 593.
_publ_section_title

;
A structural study of the (Na1-x Kx)0.5 Bi0.5 Ti O3 perovskite series as a
function of substitution (x) and temperature
;
loop_
_citation_id
_citation_journal_full
_citation_year
_citation_journal_volume
_citation_page_first
_citation_page_last
_citation_journal_id_ASTM
primary 'Powder Diffraction' 2002 17 301 319 PODIE2
loop_
_publ_author_name
'Jones, G.O.'
'Kreisel, J.'
'Thomas, P.A.'
_cell_length_a 3.9032(1)
_cell_length_b 3.9032(1)
_cell_length_c 3.9112(2)
_cell_angle_alpha 90
_cell_angle_beta 90
_cell_angle_gamma 90
_cell_volume 59.59
_cell_formula_units_Z 1
_symmetry_space_group_name_H-M 'P 4 m m'
_symmetry_Int_Tables_number 99
_refine_ls_R_factor_all 0.09
loop_
_symmetry_equiv_pos_site_id
_symmetry_equiv_pos_as_xyz
1 'y, -x, z'
2 '-y, x, z'
3 '-y, -x, z'
4 'y, x, z'
5 'x, -y, z'
6 '-x, y, z'
7 '-x, -y, z'
8 'x, y, z'
loop_
_atom_type_symbol
_atom_type_oxidation_number
Na1+ 1
K1+ 1
Bi3+ 3
Ti4+ 4
O2- -2
loop_
_atom_site_label
_atom_site_type_symbol
_atom_site_symmetry_multiplicity
_atom_site_Wyckoff_symbol
_atom_site_fract_x
_atom_site_fract_y
_atom_site_fract_z
_atom_site_B_iso_or_equiv
_atom_site_occupancy
_atom_site_attached_hydrogens
Na1 Na1+ 1 a 0 0 -0.006(1) . 0.3 0
K1 K1+ 1 a 0 0 -0.006(1) . 0.2 0
Bi1 Bi3+ 1 a 0 0 -0.006(1) . 0.5 0
Ti1 Ti4+ 1 b 0.5 0.5 0.5 . 1. 0
O1 O2- 1 b 0.5 0.5 0.016(5) . 1. 0
O2 O2- 2 c 0.5 0 0.512(9) . 1. 0
loop_
_atom_site_aniso_label
_atom_site_aniso_type_symbol
_atom_site_aniso_U_11
_atom_site_aniso_U_22
_atom_site_aniso_U_33
_atom_site_aniso_U_12
_atom_site_aniso_U_13
_atom_site_aniso_U_23
Na1 Na1+ 0.079(2) 0.076(2) 0.048(4) 0. 0. 0.
K1 K1+ 0.054(3) 0.054(3) 0.044(6) 0. 0. 0.
Bi1 Bi3+ 0.081(7) 0.081(7) 0.068(9) 0. 0. 0.
Ti1 Ti4+ 0.020(4) 0.020(4) 0.029(9) 0. 0. 0.
O1 O2- 0.068(5) 0.068(5) -.004(4) 0. 0. 0.
O2 O2- 0.019(3) 0.020(5) 0.068(4) 0. 0. 0.
#End of TTdata_98049-ICSD