
#(C) 2019 by FIZ Karlsruhe - Leibniz Institute for Information Infrastructure.  All rights reserved.
data_98055-ICSD
_database_code_ICSD 98055
_audit_creation_date 2004-10-01
_chemical_name_systematic
'Sodium potassium bismuth titanate (0.2/0.3/0.5/1) - HT'
_chemical_formula_structural '(Na0.4 K0.6)0.5 Bi0.5 (Ti O3)'
_chemical_formula_sum 'Bi0.5 K0.3 Na0.2 O3 Ti1'
_chemical_name_structure_type Perovskite-PbTiO3
_exptl_crystal_density_diffrn 5.99
_cell_measurement_temperature 593.
_publ_section_title

;
A structural study of the (Na1-x Kx)0.5 Bi0.5 Ti O3 perovskite series as a
function of substitution (x) and temperature
;
loop_
_citation_id
_citation_journal_full
_citation_year
_citation_journal_volume
_citation_page_first
_citation_page_last
_citation_journal_id_ASTM
primary 'Powder Diffraction' 2002 17 301 319 PODIE2
loop_
_publ_author_name
'Jones, G.O.'
'Kreisel, J.'
'Thomas, P.A.'
_cell_length_a 3.9130(1)
_cell_length_b 3.9130(1)
_cell_length_c 3.9215(2)
_cell_angle_alpha 90
_cell_angle_beta 90
_cell_angle_gamma 90
_cell_volume 60.04
_cell_formula_units_Z 1
_symmetry_space_group_name_H-M 'P 4 m m'
_symmetry_Int_Tables_number 99
_refine_ls_R_factor_all 0.089
loop_
_symmetry_equiv_pos_site_id
_symmetry_equiv_pos_as_xyz
1 'y, -x, z'
2 '-y, x, z'
3 '-y, -x, z'
4 'y, x, z'
5 'x, -y, z'
6 '-x, y, z'
7 '-x, -y, z'
8 'x, y, z'
loop_
_atom_type_symbol
_atom_type_oxidation_number
Na1+ 1
K1+ 1
Bi3+ 3
Ti4+ 4
O2- -2
loop_
_atom_site_label
_atom_site_type_symbol
_atom_site_symmetry_multiplicity
_atom_site_Wyckoff_symbol
_atom_site_fract_x
_atom_site_fract_y
_atom_site_fract_z
_atom_site_B_iso_or_equiv
_atom_site_occupancy
_atom_site_attached_hydrogens
Na1 Na1+ 1 a 0 0 -0.033(4) . 0.2 0
K1 K1+ 1 a 0 0 -0.033(4) . 0.3 0
Bi1 Bi3+ 1 a 0 0 -0.033(4) . 0.5 0
Ti1 Ti4+ 1 b 0.5 0.5 0.5 . 1. 0
O1 O2- 1 b 0.5 0.5 0.032(4) . 1. 0
O2 O2- 2 c 0.5 0 0.528(3) . 1. 0
loop_
_atom_site_aniso_label
_atom_site_aniso_type_symbol
_atom_site_aniso_U_11
_atom_site_aniso_U_22
_atom_site_aniso_U_33
_atom_site_aniso_U_12
_atom_site_aniso_U_13
_atom_site_aniso_U_23
Na1 Na1+ 0.031(4) 0.031(4) 0.035(2) 0. 0. 0.
K1 K1+ 0.032(4) 0.032(4) 0.039(2) 0. 0. 0.
Bi1 Bi3+ 0.074(8) 0.074(8) 0.09(2) 0. 0. 0.
Ti1 Ti4+ 0.004(3) 0.004(3) 0.009(7) 0. 0. 0.
O1 O2- 0.052(3) 0.052(3) 0.007(3) 0. 0. 0.
O2 O2- 0.013(2) 0.019(4) 0.046(4) 0. 0. 0.
#End of TTdata_98055-ICSD