
#(C) 2019 by FIZ Karlsruhe - Leibniz Institute for Information Infrastructure.  All rights reserved.
data_98053-ICSD
_database_code_ICSD 98053
_audit_creation_date 2004-10-01
_chemical_name_systematic
'Sodium potassium bismuth titanate (0.25/0.25/0.5/1) - HT'
_chemical_formula_structural '(Na0.5 K0.5)0.5 Bi0.5 (Ti O3)'
_chemical_formula_sum 'Bi0.5 K0.25 Na0.25 O3 Ti1'
_chemical_name_structure_type Perovskite-CaTiO3
_exptl_crystal_density_diffrn 5.91
_cell_measurement_temperature 993.
_publ_section_title

;
A structural study of the (Na1-x Kx)0.5 Bi0.5 Ti O3 perovskite series as a
function of substitution (x) and temperature
;
loop_
_citation_id
_citation_journal_full
_citation_year
_citation_journal_volume
_citation_page_first
_citation_page_last
_citation_journal_id_ASTM
primary 'Powder Diffraction' 2002 17 301 319 PODIE2
loop_
_publ_author_name
'Jones, G.O.'
'Kreisel, J.'
'Thomas, P.A.'
_cell_length_a 3.93009(7)
_cell_length_b 3.93009(7)
_cell_length_c 3.93009(7)
_cell_angle_alpha 90
_cell_angle_beta 90
_cell_angle_gamma 90
_cell_volume 60.7
_cell_formula_units_Z 1
_symmetry_space_group_name_H-M 'P m -3 m'
_symmetry_Int_Tables_number 221
_refine_ls_R_factor_all 0.081
loop_
_symmetry_equiv_pos_site_id
_symmetry_equiv_pos_as_xyz
1 'z, y, -x'
2 'y, x, -z'
3 'x, z, -y'
4 'z, x, -y'
5 'y, z, -x'
6 'x, y, -z'
7 'z, -y, x'
8 'y, -x, z'
9 'x, -z, y'
10 'z, -x, y'
11 'y, -z, x'
12 'x, -y, z'
13 '-z, y, x'
14 '-y, x, z'
15 '-x, z, y'
16 '-z, x, y'
17 '-y, z, x'
18 '-x, y, z'
19 '-z, -y, -x'
20 '-y, -x, -z'
21 '-x, -z, -y'
22 '-z, -x, -y'
23 '-y, -z, -x'
24 '-x, -y, -z'
25 '-z, -y, x'
26 '-y, -x, z'
27 '-x, -z, y'
28 '-z, -x, y'
29 '-y, -z, x'
30 '-x, -y, z'
31 '-z, y, -x'
32 '-y, x, -z'
33 '-x, z, -y'
34 '-z, x, -y'
35 '-y, z, -x'
36 '-x, y, -z'
37 'z, -y, -x'
38 'y, -x, -z'
39 'x, -z, -y'
40 'z, -x, -y'
41 'y, -z, -x'
42 'x, -y, -z'
43 'z, y, x'
44 'y, x, z'
45 'x, z, y'
46 'z, x, y'
47 'y, z, x'
48 'x, y, z'
loop_
_atom_type_symbol
_atom_type_oxidation_number
Na1+ 1
K1+ 1
Bi3+ 3
Ti4+ 4
O2- -2
loop_
_atom_site_label
_atom_site_type_symbol
_atom_site_symmetry_multiplicity
_atom_site_Wyckoff_symbol
_atom_site_fract_x
_atom_site_fract_y
_atom_site_fract_z
_atom_site_B_iso_or_equiv
_atom_site_occupancy
_atom_site_attached_hydrogens
Na1 Na1+ 1 a 0 0 0 . 0.25 0
K1 K1+ 1 a 0 0 0 . 0.25 0
Bi1 Bi3+ 1 a 0 0 0 . 0.5 0
Ti1 Ti4+ 1 b 0.5 0.5 0.5 . 1. 0
O1 O2- 3 c 0.5 0.5 0 . 1. 0
loop_
_atom_site_aniso_label
_atom_site_aniso_type_symbol
_atom_site_aniso_U_11
_atom_site_aniso_U_22
_atom_site_aniso_U_33
_atom_site_aniso_U_12
_atom_site_aniso_U_13
_atom_site_aniso_U_23
Na1 Na1+ 0.068(6) 0.068(6) 0.068(6) 0. 0. 0.
K1 K1+ 0.061(9) 0.061(9) 0.061(9) 0. 0. 0.
Bi1 Bi3+ 0.089(2) 0.089(2) 0.089(2) 0. 0. 0.
Ti1 Ti4+ 0.021(1) 0.021(1) 0.021(1) 0. 0. 0.
O1 O2- 0.043(1) 0.043(1) 0.043(1) 0. 0. 0.
#End of TTdata_98053-ICSD