
#(C) 2019 by FIZ Karlsruhe - Leibniz Institute for Information Infrastructure.  All rights reserved.
data_98159-ICSD
_database_code_ICSD 98159
_audit_creation_date 2004-10-01
_chemical_name_systematic
'Disodium titanium chromium(III) tris(phosphate(V)) - B'
_chemical_formula_structural 'Na2 Ti Cr (P O4)3'
_chemical_formula_sum 'Cr1 Na2 O12 P3 Ti1'
_chemical_name_structure_type Na2TiFe(PO4)3
_exptl_crystal_density_diffrn 3.12
_cell_measurement_temperature 300.
_publ_section_title

;
Structural and electrochemical studies of rhombohedral Na2 Ti M (P O4)3 and
Li1.6 Na0.4 Ti M (P O4)3 (M= Fe, Cr) phosphates
;
loop_
_citation_id
_citation_journal_full
_citation_year
_citation_journal_volume
_citation_page_first
_citation_page_last
_citation_journal_id_ASTM
primary 'Chemistry of Materials' 2003 15 2084 2093 CMATEX
loop_
_publ_author_name
'Patoux, S.'
'Rousse, G.'
'Leriche, J.B.'
'Masquelier, C.'
_cell_length_a 8.563(1)
_cell_length_b 8.563(1)
_cell_length_c 21.684(1)
_cell_angle_alpha 90
_cell_angle_beta 90
_cell_angle_gamma 120
_cell_volume 1376.96
_cell_formula_units_Z 6
_symmetry_space_group_name_H-M 'R -3 c H'
_symmetry_Int_Tables_number 167
_refine_ls_R_factor_all 0.0334
loop_
_symmetry_equiv_pos_site_id
_symmetry_equiv_pos_as_xyz
1 'x-y, -y, -z+1/2'
2 '-x, -x+y, -z+1/2'
3 'y, x, -z+1/2'
4 'x-y, x, -z'
5 'y, -x+y, -z'
6 '-x, -y, -z'
7 '-x+y, y, z+1/2'
8 'x, x-y, z+1/2'
9 '-y, -x, z+1/2'
10 '-x+y, -x, z'
11 '-y, x-y, z'
12 'x, y, z'
13 'x-y+2/3, -y+1/3, -z+5/6'
14 '-x+2/3, -x+y+1/3, -z+5/6'
15 'y+2/3, x+1/3, -z+5/6'
16 'x-y+2/3, x+1/3, -z+1/3'
17 'y+2/3, -x+y+1/3, -z+1/3'
18 '-x+2/3, -y+1/3, -z+1/3'
19 '-x+y+2/3, y+1/3, z+5/6'
20 'x+2/3, x-y+1/3, z+5/6'
21 '-y+2/3, -x+1/3, z+5/6'
22 '-x+y+2/3, -x+1/3, z+1/3'
23 '-y+2/3, x-y+1/3, z+1/3'
24 'x+2/3, y+1/3, z+1/3'
25 'x-y+1/3, -y+2/3, -z+1/6'
26 '-x+1/3, -x+y+2/3, -z+1/6'
27 'y+1/3, x+2/3, -z+1/6'
28 'x-y+1/3, x+2/3, -z+2/3'
29 'y+1/3, -x+y+2/3, -z+2/3'
30 '-x+1/3, -y+2/3, -z+2/3'
31 '-x+y+1/3, y+2/3, z+1/6'
32 'x+1/3, x-y+2/3, z+1/6'
33 '-y+1/3, -x+2/3, z+1/6'
34 '-x+y+1/3, -x+2/3, z+2/3'
35 '-y+1/3, x-y+2/3, z+2/3'
36 'x+1/3, y+2/3, z+2/3'
loop_
_atom_type_symbol
_atom_type_oxidation_number
Na1+ 1
Cr3+ 3
Ti4+ 4
P5+ 5
O2- -2
loop_
_atom_site_label
_atom_site_type_symbol
_atom_site_symmetry_multiplicity
_atom_site_Wyckoff_symbol
_atom_site_fract_x
_atom_site_fract_y
_atom_site_fract_z
_atom_site_B_iso_or_equiv
_atom_site_occupancy
_atom_site_attached_hydrogens
Na1 Na1+ 6 b 0 0 0 . 0.96(1) 0
Na2 Na1+ 18 e 0.6355(15) 0 0.25 1.13(25) 0.35(1) 0
Cr1 Cr3+ 12 c 0 0 0.1480(2) 0.7 0.5 0
Ti1 Ti4+ 12 c 0 0 0.1480(2) 0.7 0.5 0
P1 P5+ 18 e 0.2890(3) 0 0.25 0.94(5) 1. 0
O1 O2- 36 f 0.1750(3) -0.0263(2) 0.1930(1) 1.53(4) 1. 0
O2 O2- 36 f 0.3071(2) 0.8309(2) 0.2559(1) 0.83(3) 1. 0
loop_
_atom_site_aniso_label
_atom_site_aniso_type_symbol
_atom_site_aniso_beta_11
_atom_site_aniso_beta_22
_atom_site_aniso_beta_33
_atom_site_aniso_beta_12
_atom_site_aniso_beta_13
_atom_site_aniso_beta_23
Na1 Na1+ 0.0339(35) 0.0339(35) 0.0001(1) 0.0170(35) 0. 0.
#End of TTdata_98159-ICSD