
#(C) 2019 by FIZ Karlsruhe - Leibniz Institute for Information Infrastructure.  All rights reserved.
data_9831-ICSD
_database_code_ICSD 9831
_audit_creation_date 1980-01-01
_audit_update_record 1999-06-02
_chemical_name_systematic 'Sodium alumotrisilicate *'
_chemical_formula_structural 'Na Al Si3 O8'
_chemical_formula_sum 'Al1 Na1 O8 Si3'
_chemical_name_structure_type Feldspar#-(TC)-Albite-NaAlSi3O8
_chemical_name_mineral 'Albite high'
_exptl_crystal_density_diffrn 2.57
_cell_measurement_temperature 873.
_publ_section_title
'The crystal structures of high albite and monalbite at high temperatures'
loop_
_citation_id
_citation_journal_full
_citation_year
_citation_journal_volume
_citation_page_first
_citation_page_last
_citation_journal_id_ASTM
primary 'American Mineralogist' 1976 61 1213 1225 AMMIAY
loop_
_publ_author_name
'Prewitt, C.T.'
'Sueno, S.'
'Papike, J.J.'
_cell_length_a 8.2096(7)
_cell_length_b 12.9182(7)
_cell_length_c 7.1284(4)
_cell_angle_alpha 92.482(5)
_cell_angle_beta 116.282(4)
_cell_angle_gamma 90.128(5)
_cell_volume 677.01
_cell_formula_units_Z 4
_symmetry_space_group_name_H-M 'C -1'
_symmetry_Int_Tables_number 2
_refine_ls_R_factor_all 0.054
loop_
_symmetry_equiv_pos_site_id
_symmetry_equiv_pos_as_xyz
1 '-x, -y, -z'
2 'x, y, z'
3 '-x+1/2, -y+1/2, -z'
4 'x+1/2, y+1/2, z'
loop_
_atom_type_symbol
_atom_type_oxidation_number
Na1+ 1
Al3+ 3
Si4+ 4
O2- -2
loop_
_atom_site_label
_atom_site_type_symbol
_atom_site_symmetry_multiplicity
_atom_site_Wyckoff_symbol
_atom_site_fract_x
_atom_site_fract_y
_atom_site_fract_z
_atom_site_B_iso_or_equiv
_atom_site_occupancy
_atom_site_attached_hydrogens
Na1 Na1+ 4 i 0.2761(4) 0.0037(4) 0.1374(7) 10.02(14) 1. 0
Al1 Al3+ 4 i 0.0088(1) 0.1697(1) 0.2174(2) 1.62(2) 0.25 0
Al2 Al3+ 4 i 0.0061(1) 0.8165(1) 0.2275(2) 1.60(2) 0.25 0
Al3 Al3+ 4 i 0.6931(1) 0.1110(1) 0.3281(2) 1.62(2) 0.25 0
Al4 Al3+ 4 i 0.6902(1) 0.8796(1) 0.3510(2) 1.63(2) 0.25 0
Si1 Si4+ 4 i 0.0088(1) 0.1697(1) 0.2174(2) 1.62(2) 0.75 0
Si2 Si4+ 4 i 0.0061(1) 0.8165(1) 0.2275(2) 1.60(2) 0.75 0
Si3 Si4+ 4 i 0.6931(1) 0.1110(1) 0.3281(2) 1.62(2) 0.75 0
Si4 Si4+ 4 i 0.6902(1) 0.8796(1) 0.3510(2) 1.63(2) 0.75 0
O1 O2- 4 i 0.0039(5) 0.1371(3) 0.9896(5) 3.04(6) 1. 0
O2 O2- 4 i 0.5982(4) 0.9938(2) 0.2810(5) 2.41(5) 1. 0
O3 O2- 4 i 0.8217(5) 0.1185(3) 0.2071(6) 3.38(6) 1. 0
O4 O2- 4 i 0.8208(5) 0.8522(3) 0.2402(6) 3.61(7) 1. 0
O5 O2- 4 i 0.0210(4) 0.2955(2) 0.2709(5) 2.85(5) 1. 0
O6 O2- 4 i 0.0236(4) 0.6899(2) 0.2310(5) 2.93(6) 1. 0
O7 O2- 4 i 0.1927(4) 0.1158(2) 0.3928(5) 3.03(6) 1. 0
O8 O2- 4 i 0.1881(5) 0.8697(3) 0.4195(5) 3.32(6) 1. 0
#End of TTdata_9831-ICSD