
#(C) 2019 by FIZ Karlsruhe - Leibniz Institute for Information Infrastructure.  All rights reserved.
data_9832-ICSD
_database_code_ICSD 9832
_audit_creation_date 1980-01-01
_audit_update_record 1999-06-02
_chemical_name_systematic 'Sodium tecto-alumotrisilicate'
_chemical_formula_structural 'Na Al Si3 O8'
_chemical_formula_sum 'Al1 Na1 O8 Si3'
_chemical_name_structure_type Feldspar#-(TC)-Albite-NaAlSi3O8
_chemical_name_mineral 'Albite high'
_exptl_crystal_density_diffrn 2.56
_cell_measurement_temperature 1023.
_publ_section_title
'The crystal structures of high albite and monalbite at high temperatures'
loop_
_citation_id
_citation_journal_full
_citation_year
_citation_journal_volume
_citation_page_first
_citation_page_last
_citation_journal_id_ASTM
primary 'American Mineralogist' 1976 61 1213 1225 AMMIAY
loop_
_publ_author_name
'Prewitt, C.T.'
'Sueno, S.'
'Papike, J.J.'
_cell_length_a 8.2296(7)
_cell_length_b 12.9336(8)
_cell_length_c 7.1357(5)
_cell_angle_alpha 91.956(5)
_cell_angle_beta 116.232(4)
_cell_angle_gamma 90.078(5)
_cell_volume 680.78
_cell_formula_units_Z 4
_symmetry_space_group_name_H-M 'C -1'
_symmetry_Int_Tables_number 2
_refine_ls_R_factor_all 0.055
loop_
_symmetry_equiv_pos_site_id
_symmetry_equiv_pos_as_xyz
1 '-x, -y, -z'
2 'x, y, z'
3 '-x+1/2, -y+1/2, -z'
4 'x+1/2, y+1/2, z'
loop_
_atom_type_symbol
_atom_type_oxidation_number
Na1+ 1
Al3+ 3
Si4+ 4
O2- -2
loop_
_atom_site_label
_atom_site_type_symbol
_atom_site_symmetry_multiplicity
_atom_site_Wyckoff_symbol
_atom_site_fract_x
_atom_site_fract_y
_atom_site_fract_z
_atom_site_B_iso_or_equiv
_atom_site_occupancy
_atom_site_attached_hydrogens
Na1 Na1+ 4 i 0.2769(5) 0.0029(4) 0.1374(7) 10.80(15) 1. 0
Al1 Al3+ 4 i 0.0087(1) 0.1718(1) 0.2189(2) 1.89(2) 0.25 0
Al2 Al3+ 4 i 0.0066(1) 0.8177(1) 0.2268(2) 1.85(2) 0.25 0
Al3 Al3+ 4 i 0.6940(1) 0.1123(1) 0.3316(2) 1.88(2) 0.25 0
Al4 Al3+ 4 i 0.6919(1) 0.8805(1) 0.3494(2) 1.89(2) 0.25 0
Si1 Si4+ 4 i 0.0087(1) 0.1718(1) 0.2189(2) 1.89(2) 0.75 0
Si2 Si4+ 4 i 0.0066(1) 0.8177(1) 0.2268(2) 1.85(2) 0.75 0
Si3 Si4+ 4 i 0.6940(1) 0.1123(1) 0.3316(2) 1.88(2) 0.75 0
Si4 Si4+ 4 i 0.6919(1) 0.8805(1) 0.3494(2) 1.89(2) 0.75 0
O1 O2- 4 i 0.0030(5) 0.1374(3) 0.9912(5) 3.60(7) 1. 0
O2 O2- 4 i 0.6012(4) 0.9951(2) 0.2825(5) 2.85(5) 1. 0
O3 O2- 4 i 0.8221(5) 0.1225(3) 0.2114(6) 3.86(7) 1. 0
O4 O2- 4 i 0.8216(5) 0.8548(3) 0.2370(6) 4.23(8) 1. 0
O5 O2- 4 i 0.0226(5) 0.2974(2) 0.2670(6) 3.26(6) 1. 0
O6 O2- 4 i 0.0242(5) 0.6915(3) 0.2376(5) 3.38(6) 1. 0
O7 O2- 4 i 0.1912(5) 0.1175(3) 0.3951(5) 3.51(6) 1. 0
O8 O2- 4 i 0.1882(5) 0.8714(3) 0.4166(5) 3.70(7) 1. 0
#End of TTdata_9832-ICSD