
#(C) 2019 by FIZ Karlsruhe - Leibniz Institute for Information Infrastructure.  All rights reserved.
data_9835-ICSD
_database_code_ICSD 9835
_audit_creation_date 1980-01-01
_audit_update_record 2015-08-01
_chemical_name_systematic 'Sodium aluminium silicate *'
_chemical_formula_structural 'Na Al Si3 O8'
_chemical_formula_sum 'Al1 Na1 O8 Si3'
_chemical_name_structure_type Feldspar#-(TC)-Albite-NaAlSi3O8
_chemical_name_mineral 'Albite high'
_exptl_crystal_density_diffrn 2.53
_cell_measurement_temperature 1378.
_publ_section_title
'The crystal structures of high albite and monalbite at high temperatures'
loop_
_citation_id
_citation_journal_full
_citation_year
_citation_journal_volume
_citation_page_first
_citation_page_last
_citation_journal_id_ASTM
primary 'American Mineralogist' 1976 61 1213 1225 AMMIAY
loop_
_publ_author_name
'Prewitt, C.T.'
'Sueno, S.'
'Papike, J.J.'
_cell_length_a 8.2783(7)
_cell_length_b 12.9592(7)
_cell_length_c 7.1452(5)
_cell_angle_alpha 90.056(5)
_cell_angle_beta 116.087(4)
_cell_angle_gamma 89.997(4)
_cell_volume 688.45
_cell_formula_units_Z 4
_symmetry_space_group_name_H-M 'C -1'
_symmetry_Int_Tables_number 2
_refine_ls_R_factor_all 0.068
loop_
_symmetry_equiv_pos_site_id
_symmetry_equiv_pos_as_xyz
1 '-x, -y, -z'
2 'x, y, z'
3 '-x+1/2, -y+1/2, -z'
4 'x+1/2, y+1/2, z'
loop_
_atom_type_symbol
_atom_type_oxidation_number
Na1+ 1
Al3+ 3
Si4+ 4
O2- -2
loop_
_atom_site_label
_atom_site_type_symbol
_atom_site_symmetry_multiplicity
_atom_site_Wyckoff_symbol
_atom_site_fract_x
_atom_site_fract_y
_atom_site_fract_z
_atom_site_B_iso_or_equiv
_atom_site_occupancy
_atom_site_attached_hydrogens
Na1 Na1+ 4 i 0.2797(7) 0.0000(6) 0.1382(10) 12.59(20) 1. 0
Al1 Al3+ 4 i 0.0081(2) 0.1783(1) 0.2230(2) 2.50(3) 0.25 0
Al2 Al3+ 4 i 0.0080(2) 0.8214(1) 0.2233(2) 2.53(3) 0.25 0
Al3 Al3+ 4 i 0.6963(2) 0.1160(1) 0.3420(2) 2.51(3) 0.25 0
Al4 Al3+ 4 i 0.6964(2) 0.8838(1) 0.3426(2) 2.50(3) 0.25 0
Si1 Si4+ 4 i 0.0081(2) 0.1783(1) 0.2230(2) 2.50(3) 0.75 0
Si2 Si4+ 4 i 0.0080(2) 0.8214(1) 0.2233(2) 2.53(3) 0.75 0
Si3 Si4+ 4 i 0.6963(2) 0.1160(1) 0.3420(2) 2.51(3) 0.75 0
Si4 Si4+ 4 i 0.6964(2) 0.8838(1) 0.3426(2) 2.50(3) 0.75 0
O1 O2- 4 i 0.0002(7) 0.1390(4) 0.9995(7) 4.42(10) 1. 0
O2 O2- 4 i 0.6072(5) 0.9999(3) 0.2850(7) 3.43(8) 1. 0
O3 O2- 4 i 0.8238(7) 0.1345(4) 0.2242(9) 5.31(12) 1. 0
O4 O2- 4 i 0.8239(7) 0.8654(4) 0.2252(9) 5.35(12) 1. 0
O5 O2- 4 i 0.0266(6) 0.3041(4) 0.2534(8) 4.61(10) 1. 0
O6 O2- 4 i 0.0264(6) 0.6957(4) 0.2525(8) 4.6(1) 1. 0
O7 O2- 4 i 0.1882(6) 0.1236(4) 0.4050(7) 4.52(10) 1. 0
O8 O2- 4 i 0.1875(6) 0.8761(4) 0.4056(7) 4.48(10) 1. 0
#End of TTdata_9835-ICSD