
#(C) 2019 by FIZ Karlsruhe - Leibniz Institute for Information Infrastructure.  All rights reserved.
data_98368-ICSD
_database_code_ICSD 98368
_audit_creation_date 2005-04-01
_audit_update_record 2008-02-01
_chemical_name_systematic 'Sodium tetraoxohydroxodisilicate'
_chemical_formula_structural 'Na (Si2 O4 (O H))'
_chemical_formula_sum 'H1 Na1 O5 Si2'
_exptl_crystal_density_diffrn 2.45
_publ_section_title

;
Synthesis and characterization of a new one-dimensional sodium silicate named
Mu-29
;
loop_
_citation_id
_citation_journal_full
_citation_year
_citation_journal_volume
_citation_page_first
_citation_page_last
_citation_journal_id_ASTM
primary 'Microporous and Mesoporous Materials' 2003 64 51 61 MIMMFJ
loop_
_publ_author_name
'Sassi, M.'
'Gramlich, V.'
'Miehe-Brendle, J.'
'Josien, L.'
'Paillaud, J.-L.'
'Benggedach, A.'
'Patarin, J.'
_cell_length_a 27.32(2)
_cell_length_b 15.40(2)
_cell_length_c 8.241(8)
_cell_angle_alpha 90
_cell_angle_beta 90
_cell_angle_gamma 90
_cell_volume 3467.22
_cell_formula_units_Z 32
_symmetry_space_group_name_H-M 'P n a 21'
_symmetry_Int_Tables_number 33
_refine_ls_R_factor_all 0.0572
loop_
_symmetry_equiv_pos_site_id
_symmetry_equiv_pos_as_xyz
1 'x+1/2, -y+1/2, z'
2 '-x+1/2, y+1/2, z+1/2'
3 '-x, -y, z+1/2'
4 'x, y, z'
loop_
_atom_type_symbol
_atom_type_oxidation_number
Si4+ 4
Na1+ 1
O2- -2
H1+ 1
loop_
_atom_site_label
_atom_site_type_symbol
_atom_site_symmetry_multiplicity
_atom_site_Wyckoff_symbol
_atom_site_fract_x
_atom_site_fract_y
_atom_site_fract_z
_atom_site_B_iso_or_equiv
_atom_site_occupancy
_atom_site_attached_hydrogens
Si1 Si4+ 4 a 0.0288(2) 0.3351(4) 0.3490(9) 0.013(2) 1. 0
Si2 Si4+ 4 a 0.0346(3) 0.1344(5) 0.2928(9) 0.011(2) 1. 0
Si3 Si4+ 4 a 0.0513(2) 0.1528(5) 0.9292(9) 0.015(2) 1. 0
Si4 Si4+ 4 a 0.0485(3) 0.3530(5) 0.9859(9) 0.017(2) 1. 0
Si5 Si4+ 4 a 0.9547(3) 0.3675(5) 0.7803(9) 0.015(2) 1. 0
Si6 Si4+ 4 a 0.9549(2) 0.1653(4) 0.7387(9) 0.014(2) 1. 0
Si7 Si4+ 4 a 0.8822(3) 0.1693(5) 0.0259(10) 0.016(2) 1. 0
Si8 Si4+ 4 a 0.8665(3) 0.3732(5) 0.9932(10) 0.017(2) 1. 0
Si9 Si4+ 4 a 0.7710(3) 0.3443(5) 0.8105(10) 0.018(2) 1. 0
Si10 Si4+ 4 a 0.7863(3) 0.1415(5) 0.8380(10) 0.019(2) 1. 0
Si11 Si4+ 4 a 0.8036(3) 0.1445(5) 0.4698(9) 0.017(2) 1. 0
Si12 Si4+ 4 a 0.8120(2) 0.3436(4) 0.4549(9) 0.016(2) 1. 0
Si13 Si4+ 4 a 0.7161(3) 0.3558(5) 0.2631(10) 0.014(2) 1. 0
Si14 Si4+ 4 a 0.7046(3) 0.1550(5) 0.2882(10) 0.020(2) 1. 0
Si15 Si4+ 4 a 0.6214(2) 0.1715(5) 0.5371(10) 0.016(2) 1. 0
Si16 Si4+ 4 a 0.6282(2) 0.3703(5) 0.4793(9) 0.014(2) 1. 0
Na1 Na1+ 4 a 0.1269(4) 0.0001(7) 0.0851(14) 0.028(3) 1. 0
Na2 Na1+ 4 a 0.9533(3) 0.4904(7) 0.1901(13) 0.025(3) 1. 0
Na3 Na1+ 4 a 0.9200(4) 0.2537(6) 0.3902(15) 0.035(3) 1. 0
Na4 Na1+ 4 a 0.7995(4) 0.5153(7) 0.1716(15) 0.033(3) 1. 0
Na5 Na1+ 4 a 0.8776(4) 0.5072(8) 0.6262(17) 0.035(3) 1. 0
Na6 Na1+ 4 a 0.6601(4) 0.2674(7) 0.8683(16) 0.038(3) 1. 0
Na7 Na1+ 4 a 0.7023(3) 0.4984(6) 0.6565(15) 0.021(3) 1. 0
Na8 Na1+ 4 a 0.5413(3) 0.5144(7) 0.6269(15) 0.030(3) 1. 0
O1 O2- 4 a 0.0188(6) 0.2311(11) 0.3432(23) 0.020(4) 1. 0
O2 O2- 4 a 0.9766(6) 0.3805(10) 0.3768(22) 0.017(4) 1. 0
O3 O2- 4 a 0.0664(6) 0.3587(12) 0.4935(22) 0.023(5) 1. 0
O4 O2- 4 a 0.0537(6) 0.3625(11) 0.1817(22) 0.017(4) 1. 0
O5 O2- 4 a 0.0020(6) 0.0649(10) 0.3915(22) 0.017(4) 1. 0
O6 O2- 4 a 0.0948(7) 0.1210(12) 0.3248(24) 0.027(5) 1. 0
O7 O2- 4 a 0.0265(6) 0.1197(11) 0.0968(23) 0.025(5) 1. 0
O8 O2- 4 a 0.0998(6) 0.0986(11) 0.8969(22) 0.020(5) 1. 0
O9 O2- 4 a 0.0665(5) 0.2558(10) 0.9439(24) 0.021(4) 1. 0
O10 O2- 4 a 0.0107(5) 0.1411(10) 0.7845(20) 0.014(4) 1. 0
O11 O2- 4 a 0.0827(6) 0.4193(10) 0.9000(24) 0.019(4) 1. 0
O12 O2- 4 a 0.9910(6) 0.3649(12) 0.9401(24) 0.032(5) 1. 0
O13 O2- 4 a 0.9721(6) 0.4346(11) 0.6528(21) 0.019(4) 1. 0
O14 O2- 4 a 0.9015(6) 0.3975(11) 0.8445(24) 0.027(5) 1. 0
O15 O2- 4 a 0.9521(6) 0.2703(11) 0.7058(23) 0.023(5) 1. 0
O16 O2- 4 a 0.9384(6) 0.1138(10) 0.5791(23) 0.020(5) 1. 0
O17 O2- 4 a 0.9212(6) 0.1430(10) 0.8952(24) 0.019(4) 1. 0
O18 O2- 4 a 0.9002(6) 0.1362(11) 0.2021(22) 0.025(5) 1. 0
O19 O2- 4 a 0.8288(5) 0.1308(12) 0.9753(22) 0.023(5) 1. 0
O20 O2- 4 a 0.8749(6) 0.2739(12) 0.0346(24) 0.027(5) 1. 0
O21 O2- 4 a 0.8760(6) 0.4356(11) 0.1473(23) 0.023(4) 1. 0
O22 O2- 4 a 0.8101(6) 0.3863(11) 0.9345(25) 0.025(5) 1. 0
O23 O2- 4 a 0.7181(7) 0.3830(11) 0.8362(23) 0.018(4) 1. 0
O24 O2- 4 a 0.7898(7) 0.3651(11) 0.6274(27) 0.026(4) 1. 0
O25 O2- 4 a 0.7695(6) 0.2394(11) 0.8410(25) 0.030(5) 1. 0
O26 O2- 4 a 0.7437(6) 0.0781(10) 0.8857(22) 0.020(4) 1. 0
O27 O2- 4 a 0.8108(6) 0.1216(11) 0.6639(22) 0.026(5) 1. 0
O28 O2- 4 a 0.8342(5) 0.0752(10) 0.3680(22) 0.016(4) 1. 0
O29 O2- 4 a 0.7466(7) 0.1448(12) 0.4308(27) 0.047(6) 1. 0
O30 O2- 4 a 0.8267(5) 0.2425(10) 0.4475(23) 0.017(4) 1. 0
O31 O2- 4 a 0.8615(7) 0.3964(12) 0.4244(27) 0.036(5) 1. 0
O32 O2- 4 a 0.7737(6) 0.3651(10) 0.3104(20) 0.012(4) 1. 0
O33 O2- 4 a 0.7036(6) 0.4205(10) 0.1242(24) 0.022(4) 1. 0
O34 O2- 4 a 0.7050(6) 0.2544(10) 0.2188(22) 0.021(5) 1. 0
O35 O2- 4 a 0.6843(6) 0.3853(12) 0.4229(26) 0.029(5) 1. 0
O36 O2- 4 a 0.7095(7) 0.0825(11) 0.1492(28) 0.037(5) 1. 0
O37 O2- 4 a 0.6536(6) 0.1424(12) 0.3863(23) 0.026(5) 1. 0
O38 O2- 4 a 0.6408(6) 0.1310(11) 0.7046(22) 0.017(4) 1. 0
O39 O2- 4 a 0.6239(6) 0.2758(11) 0.5591(24) 0.025(5) 1. 0
O40 O2- 4 a 0.6165(6) 0.4437(11) 0.6174(22) 0.018(4) 1. 0
H1 H1+ 4 a 0.9732(78) 0.394(13) 0.524(11) 0.048(31) 1. 0
H2 H1+ 4 a 0.9701(49) 0.077(17) 0.498(17) 0.048(31) 1. 0
H3 H1+ 4 a 0.113(10) 0.0809(98) 0.7590(96) 0.048(31) 1. 0
H4 H1+ 4 a 0.1174(72) 0.394(13) 0.824(16) 0.048(31) 1. 0
H5 H1+ 4 a 0.8721(61) 0.110(17) 0.311(25) 0.048(31) 1. 0
H6 H1+ 4 a 0.875(10) 0.3888(37) 0.2730(68) 0.048(31) 1. 0
H7 H1+ 4 a 0.7119(99) 0.405(12) 0.9806(95) 0.048(31) 1. 0
H8 H1+ 4 a 0.7198(71) 0.102(13) 0.007(10) 0.048(31) 1. 0
#End of TTdata_98368-ICSD