
#(C) 2019 by FIZ Karlsruhe - Leibniz Institute for Information Infrastructure.  All rights reserved.
data_98484-ICSD
_database_code_ICSD 98484
_audit_creation_date 2005-04-01
_chemical_name_systematic
'Pentabarium disodium diruthenate(V) ruthenate(VI) - HT'
_chemical_formula_structural 'Ba5 Na2 (Ru2 O9) (Ru O5)'
_chemical_formula_sum 'Ba5 Na2 O14 Ru3'
_exptl_crystal_density_diffrn 5.64
_cell_measurement_temperature 823.
_publ_section_title

;
Electrosynthesis, structural transitions and characterization of the new
10H-(Ba5 Ru3 Na2 O14)
;
loop_
_citation_id
_citation_journal_full
_citation_year
_citation_journal_volume
_citation_page_first
_citation_page_last
_citation_journal_id_ASTM
primary 'Solid State Sciences' 2003 5 1105 1116 SSSCFJ
loop_
_publ_author_name
'Quarez, E.'
'Mentre, O.'
_cell_length_a 5.9261(8)
_cell_length_b 5.9261(8)
_cell_length_c 24.400(5)
_cell_angle_alpha 90
_cell_angle_beta 90
_cell_angle_gamma 120
_cell_volume 742.09
_cell_formula_units_Z 2
_symmetry_space_group_name_H-M 'P -6 2 c'
_symmetry_Int_Tables_number 190
_refine_ls_R_factor_all 0.0645
loop_
_symmetry_equiv_pos_site_id
_symmetry_equiv_pos_as_xyz
1 '-x, -x+y, -z'
2 'x-y, -y, -z'
3 'y, x, -z'
4 '-x, -x+y, z+1/2'
5 'x-y, -y, z+1/2'
6 'y, x, z+1/2'
7 '-x+y, -x, -z+1/2'
8 '-y, x-y, -z+1/2'
9 'x, y, -z+1/2'
10 '-x+y, -x, z'
11 '-y, x-y, z'
12 'x, y, z'
loop_
_atom_type_symbol
_atom_type_oxidation_number
Ba2+ 2
Ru5+ 5
Ru6+ 6
Na1+ 1
O2- -2
loop_
_atom_site_label
_atom_site_type_symbol
_atom_site_symmetry_multiplicity
_atom_site_Wyckoff_symbol
_atom_site_fract_x
_atom_site_fract_y
_atom_site_fract_z
_atom_site_B_iso_or_equiv
_atom_site_occupancy
_atom_site_attached_hydrogens
Ba1 Ba2+ 4 f 0.3333 0.6667 0.55607(5) 0.0453(3) 1. 0
Ba2 Ba2+ 4 e 0 0 0.16286(4) 0.0314(2) 1. 0
Ba3 Ba2+ 2 c 0.3333 0.6667 0.25 0.0275(3) 1. 0
Ru1 Ru5+ 4 f 0.3333 0.6667 0.69420(4) 0.0159(2) 1. 0
Ru2 Ru6+ 2 a 0 0 0 0.0283(3) 1. 0
Na1 Na1+ 4 f 0.3333 0.6667 0.0995(3) 0.031(1) 1. 0
O1 O2- 12 i 0.177(7) 0.307(3) 0.0414(7) 0.085(6) 0.833 0
O2 O2- 12 i 0.025(1) 0.532(2) 0.6531(3) 0.030(2) 1. 0
O3 O2- 6 h 0.632(1) 0.795(3) 0.75 0.018(2) 1. 0
#End of TTdata_98484-ICSD