
#(C) 2019 by FIZ Karlsruhe - Leibniz Institute for Information Infrastructure.  All rights reserved.
data_98483-ICSD
_database_code_ICSD 98483
_audit_creation_date 2005-04-01
_chemical_name_systematic 'Pentabarium disodium diruthenate(V) ruthenate(VI)'
_chemical_formula_structural 'Ba5 Na2 (Ru2 O9) (Ru O5)'
_chemical_formula_sum 'Ba5 Na2 O14 Ru3'
_exptl_crystal_density_diffrn 5.79
_cell_measurement_temperature 298.
_publ_section_title

;
Electrosynthesis, structural transitions and characterization of the new
10H-(Ba5 Ru3 Na2 O14)
;
loop_
_citation_id
_citation_journal_full
_citation_year
_citation_journal_volume
_citation_page_first
_citation_page_last
_citation_journal_id_ASTM
primary 'Solid State Sciences' 2003 5 1105 1116 SSSCFJ
loop_
_publ_author_name
'Quarez, E.'
'Mentre, O.'
_cell_length_a 5.8146(4)
_cell_length_b 10.2812(7)
_cell_length_c 24.173(2)
_cell_angle_alpha 90
_cell_angle_beta 90
_cell_angle_gamma 90
_cell_volume 1445.09
_cell_formula_units_Z 4
_symmetry_space_group_name_H-M 'C m c 21'
_symmetry_Int_Tables_number 36
_refine_ls_R_factor_all 0.0418
loop_
_symmetry_equiv_pos_site_id
_symmetry_equiv_pos_as_xyz
1 'x, -y, z+1/2'
2 '-x, -y, z+1/2'
3 '-x, y, z'
4 'x, y, z'
5 'x+1/2, -y+1/2, z+1/2'
6 '-x+1/2, -y+1/2, z+1/2'
7 '-x+1/2, y+1/2, z'
8 'x+1/2, y+1/2, z'
loop_
_atom_type_symbol
_atom_type_oxidation_number
Ba2+ 2
Ru5+ 5
Ru6+ 6
Na1+ 1
O2- -2
loop_
_atom_site_label
_atom_site_type_symbol
_atom_site_symmetry_multiplicity
_atom_site_Wyckoff_symbol
_atom_site_fract_x
_atom_site_fract_y
_atom_site_fract_z
_atom_site_B_iso_or_equiv
_atom_site_occupancy
_atom_site_attached_hydrogens
Ba1 Ba2+ 4 a 0 0.3290(3) 0.0648(1) 0.0359(9) 1. 0
Ba2 Ba2+ 4 a 0 0.3245(3) 0.4520(1) 0.0308(7) 1. 0
Ba3 Ba2+ 4 a 0 0.9926(2) 0.17140(9) 0.0179(5) 1. 0
Ba4 Ba2+ 4 a 0 0.9921(2) 0.34599(9) 0.0175(5) 1. 0
Ba5 Ba2+ 4 a 0 0.6595(1) 0.2591(2) 0.0143(2) 1. 0
Ru1 Ru5+ 4 a 0 0.3258(3) 0.2024(1) 0.0107(6) 1. 0
Ru2 Ru5+ 4 a 0 0.3264(3) 0.3138(1) 0.0109(6) 1. 0
Ru3 Ru6+ 4 a 0 0.0025(4) 0.0080(2) 0.0204(2) 1. 0
Na1 Na1+ 4 a 0 0.660(1) 0.4065(5) 0.009(2) 1. 0
Na2 Na1+ 4 a 0 0.342(1) 0.6039(5) 0.013(3) 1. 0
O1 O2- 8 b 0.747(3) 0.419(2) 0.542(1) 0.067(7) 1. 0
O2 O2- 8 b 0.697(4) 0.549(3) 0.450(1) 0.087(7) 1. 0
O3 O2- 4 a 0 0.166(1) 0.5482(8) 0.009(3) 1. 0
O4 O2- 8 b 0.229(2) 0.247(2) 0.1617(7) 0.015(4) 1. 0
O5 O2- 8 b 0.234(2) 0.249(2) 0.3555(9) 0.023(5) 1. 0
O6 O2- 4 a 0 0.491(2) 0.165(1) 0.016(6) 1. 0
O7 O2- 4 a 0 0.475(2) 0.3588(9) 0.012(4) 1. 0
O8 O2- 8 b 0.230(1) 0.4043(8) 0.2566(9) 0.014(2) 1. 0
O9 O2- 4 a 0 0.172(1) 0.255(1) 0.013(3) 1. 0
#End of TTdata_98483-ICSD