
#(C) 2019 by FIZ Karlsruhe - Leibniz Institute for Information Infrastructure.  All rights reserved.
data_98593-ICSD
_database_code_ICSD 98593
_audit_creation_date 2005-04-01
_audit_update_record 2008-08-01
_chemical_name_systematic
'Barium sodium ruthenium carbonate oxide (3/0.94/1.76/0.3/7.8)'
_chemical_formula_structural 'Ba3 (Na0.94 Ru0.06) (Ru1.7 (C O3)0.3 O7.8)'
_chemical_formula_sum 'C0.3 Ba3 Na0.94 O8.7 Ru1.76'
_chemical_name_structure_type BaFeO2+x
_exptl_crystal_density_diffrn 5.89
_cell_measurement_temperature 300.
_publ_section_title

;
From the mixed valent 6H-(Ba3 Ru(5.5+)2 Na O9) to the 6H-(Ba3 Ru1.69 C0.31)
(Na0.95 Ru0.05) O8.69 oxycarbonate compound
;
loop_
_citation_id
_citation_journal_full
_citation_year
_citation_journal_volume
_citation_page_first
_citation_page_last
_citation_journal_id_ASTM
primary 'Solid State Sciences' 2003 5 951 963 SSSCFJ
loop_
_publ_author_name
'Quarez, E.'
'Huve, M.'
'Abraham, F.'
'Mentre, O.'
_cell_length_a 5.8313(1)
_cell_length_b 5.8313(1)
_cell_length_c 14.4535(4)
_cell_angle_alpha 90
_cell_angle_beta 90
_cell_angle_gamma 120
_cell_volume 425.63
_cell_formula_units_Z 2
_symmetry_space_group_name_H-M 'P 63/m m c'
_symmetry_Int_Tables_number 194
_refine_ls_R_factor_all 0.0299
loop_
_symmetry_equiv_pos_site_id
_symmetry_equiv_pos_as_xyz
1 'x, x-y, -z+1/2'
2 '-x+y, y, -z+1/2'
3 '-y, -x, -z+1/2'
4 '-x+y, -x, -z+1/2'
5 '-y, x-y, -z+1/2'
6 'x, y, -z+1/2'
7 '-x, -x+y, z+1/2'
8 'x-y, -y, z+1/2'
9 'y, x, z+1/2'
10 'x-y, x, z+1/2'
11 'y, -x+y, z+1/2'
12 '-x, -y, z+1/2'
13 '-x, -x+y, -z'
14 'x-y, -y, -z'
15 'y, x, -z'
16 'x-y, x, -z'
17 'y, -x+y, -z'
18 '-x, -y, -z'
19 'x, x-y, z'
20 '-x+y, y, z'
21 '-y, -x, z'
22 '-x+y, -x, z'
23 '-y, x-y, z'
24 'x, y, z'
loop_
_atom_type_symbol
_atom_type_oxidation_number
Ba2+ 2
Ru5+ 5.26
Na1+ 1
Ru5+ 5.26
C4+ 4
O2- -2
loop_
_atom_site_label
_atom_site_type_symbol
_atom_site_symmetry_multiplicity
_atom_site_Wyckoff_symbol
_atom_site_fract_x
_atom_site_fract_y
_atom_site_fract_z
_atom_site_B_iso_or_equiv
_atom_site_occupancy
_atom_site_attached_hydrogens
Ba1 Ba2+ 4 f 0.3333 0.6667 0.5898(2) 1.46(9) 1. 0
Ba2 Ba2+ 2 b 0 0 0.25 0.97(8) 1. 0
Ru1 Ru5+ 4 f 0.3333 0.6667 0.1564(3) 0.4(1) 0.85(3) 0
Na2 Na1+ 2 a 0 0 0 1.0(2) 0.94(3) 0
Ru2 Ru5+ 2 a 0 0 0 1.0(2) 0.06(3) 0
C1 C4+ 4 f 0.3333 0.6667 0.112(3) 2.7(1) 0.15(3) 0
O1 O2- 12 k 0.1792(3) 0.8208(3) 0.0912(2) 1.9(1) 1. 0
O2 O2- 6 h 0.4870(5) 0.974(1) 0.25 1.4(1) 0.90(3) 0
#End of TTdata_98593-ICSD