
#(C) 2019 by FIZ Karlsruhe - Leibniz Institute for Information Infrastructure.  All rights reserved.
data_98679-ICSD
_database_code_ICSD 98679
_audit_creation_date 2005-04-01
_chemical_name_systematic 'Disodium manganese bis(sulfate(VI)) dihydrate'
_chemical_formula_structural 'Na2 Mn (S O4)2 (H2 O)2'
_chemical_formula_sum 'H4 Mn1 Na2 O10 S2'
_chemical_name_structure_type Kroehnkite-Na2Cu(SO4)2(H2O)2#Roselite
_exptl_crystal_density_diffrn 2.73
_publ_section_title

;
Crystal structures and crystal chemical relationships of kroehnkite- and
collinsite-type compounds Na2 Me(2+) (X O4)2 * 2(H2 O) (X = S, Me = Mn, Cd;
and X = Se, Me = Mn, Co, Ni, Zn, Cd) and K2 Co (Se O4)2 * 2(H2 O)
;
loop_
_citation_id
_citation_journal_full
_citation_year
_citation_journal_volume
_citation_page_first
_citation_page_last
_citation_journal_id_ASTM
primary 'Zeitschrift fuer Kristallographie' 2003 218 201 209 ZEKRDZ
loop_
_publ_author_name
'Wildner, M.'
'Stoilova, D.'
_cell_length_a 5.824(1)
_cell_length_b 12.999(1)
_cell_length_c 5.497(1)
_cell_angle_alpha 90
_cell_angle_beta 106.05(1)
_cell_angle_gamma 90
_cell_volume 399.94
_cell_formula_units_Z 2
_symmetry_space_group_name_H-M 'P 1 21/c 1'
_symmetry_Int_Tables_number 14
_refine_ls_R_factor_all 0.0193
loop_
_symmetry_equiv_pos_site_id
_symmetry_equiv_pos_as_xyz
1 'x, -y+1/2, z+1/2'
2 '-x, -y, -z'
3 '-x, y+1/2, -z+1/2'
4 'x, y, z'
loop_
_atom_type_symbol
_atom_type_oxidation_number
Mn2+ 2
Na1+ 1
S6+ 6
O2- -2
H1+ 1
loop_
_atom_site_label
_atom_site_type_symbol
_atom_site_symmetry_multiplicity
_atom_site_Wyckoff_symbol
_atom_site_fract_x
_atom_site_fract_y
_atom_site_fract_z
_atom_site_B_iso_or_equiv
_atom_site_occupancy
_atom_site_attached_hydrogens
Mn1 Mn2+ 2 a 0 0 0 0.0120(1) 1. 0
Na1 Na1+ 4 e 0.5770(1) 0.1198(1) 0.2532(1) 0.0271(1) 1. 0
S1 S6+ 4 e 0.22869(3) 0.11765(1) 0.57331(3) 0.0094(1) 1. 0
O1 O2- 4 e -0.0032(1) 0.1689(1) 0.5163(1) 0.0167(1) 1. 0
O2 O2- 4 e 0.2735(1) 0.0595(1) 0.8158(1) 0.0149(1) 1. 0
O3 O2- 4 e 0.2343(1) 0.0430(1) 0.3690(1) 0.0162(1) 1. 0
O4 O2- 4 e 0.4254(1) 0.1913(1) 0.5916(1) 0.0159(1) 1. 0
O5 O2- 4 e 0.8103(1) 0.1429(1) 0.9727(1) 0.0141(1) 1. 0
H1 H1+ 4 e 0.893(3) 0.198(1) 0.997(3) 0.026(4) 1. 0
H2 H1+ 4 e 0.714(4) 0.150(2) 0.844(4) 0.043(5) 1. 0
#End of TTdata_98679-ICSD