
#(C) 2019 by FIZ Karlsruhe - Leibniz Institute for Information Infrastructure.  All rights reserved.
data_98673-ICSD
_database_code_ICSD 98673
_audit_creation_date 2005-04-01
_chemical_name_systematic 'Trisodium molybdenum trioxide nitride'
_chemical_formula_structural 'Na3 Mo O3 N'
_chemical_formula_sum 'Mo1 N1 Na3 O3'
_chemical_name_structure_type Enargite-Cu3AsS4
_exptl_crystal_density_diffrn 2.95
_cell_measurement_temperature 295.
_publ_section_title

;
A new oxynitride compound of molybdenum, Na3 Mo O3 N - synthesis via the azide
route
;
loop_
_citation_id
_citation_journal_full
_citation_year
_citation_journal_volume
_citation_page_first
_citation_page_last
_citation_journal_id_ASTM
primary 'Zeitschrift fuer Anorganische und Allgemeine Chemie (1950) (DE)' 2003
629 939 941 ZAACAB
loop_
_publ_author_name
'Arumugam, N.'
'Hoennerscheid, A.'
'Jansen, M.'
_cell_length_a 7.2463(1)
_cell_length_b 6.2498(1)
_cell_length_c 5.6386(1)
_cell_angle_alpha 90
_cell_angle_beta 90
_cell_angle_gamma 90
_cell_volume 255.36
_cell_formula_units_Z 2
_symmetry_space_group_name_H-M 'P m n 21'
_symmetry_Int_Tables_number 31
_refine_ls_R_factor_all 0.0625
loop_
_symmetry_equiv_pos_site_id
_symmetry_equiv_pos_as_xyz
1 'x+1/2, -y, z+1/2'
2 '-x+1/2, -y, z+1/2'
3 '-x, y, z'
4 'x, y, z'
loop_
_atom_type_symbol
_atom_type_oxidation_number
Mo6+ 6
Na1+ 1
O2- -2
N3- -3
O2- -2
loop_
_atom_site_label
_atom_site_type_symbol
_atom_site_symmetry_multiplicity
_atom_site_Wyckoff_symbol
_atom_site_fract_x
_atom_site_fract_y
_atom_site_fract_z
_atom_site_B_iso_or_equiv
_atom_site_occupancy
_atom_site_attached_hydrogens
Mo1 Mo6+ 2 a 0 0.8257(1) 0 0.0100(2) 1. 0
Na1 Na1+ 2 a 0.5 0.8386(5) 0.981(1) 0.0105(5) 1. 0
Na2 Na1+ 4 b 0.2440(3) 0.3277(4) 0.984(1) 0.0105(5) 1. 0
O1 O2- 2 a 0 0.101(1) 0.8975(9) 0.0156(10) 1. 0
N1 N3- 2 a 0.5 0.173(1) 0.8194(8) 0.0156(10) 1. 0
O2 O2- 4 b 0.2056(5) 0.6902(7) 0.8975(6) 0.0156(10) 1. 0
#End of TTdata_98673-ICSD