
#(C) 2019 by FIZ Karlsruhe - Leibniz Institute for Information Infrastructure.  All rights reserved.
data_98683-ICSD
_database_code_ICSD 98683
_audit_creation_date 2005-04-01
_chemical_name_systematic 'Disodium cobalt bis(selenate(VI)) dihydrate'
_chemical_formula_structural 'Na2 Co (Se O4)2 (H2 O)2'
_chemical_formula_sum 'H4 Co1 Na2 O10 Se2'
_chemical_name_structure_type Fairfieldite-Ca2Mn(PO4)2
_exptl_crystal_density_diffrn 3.42
_publ_section_title

;
Crystal structures and crystal chemical relationships of kroehnkite- and
collinsite-type compounds Na2 Me(2+) (X O4)2 * 2(H2 O) (X = S, Me = Mn, Cd;
and X = Se, Me = Mn, Co, Ni, Zn, Cd) and K2 Co (Se O4)2 * 2(H2 O)
;
loop_
_citation_id
_citation_journal_full
_citation_year
_citation_journal_volume
_citation_page_first
_citation_page_last
_citation_journal_id_ASTM
primary 'Zeitschrift fuer Kristallographie' 2003 218 201 209 ZEKRDZ
loop_
_publ_author_name
'Wildner, M.'
'Stoilova, D.'
_cell_length_a 5.929(1)
_cell_length_b 7.208(1)
_cell_length_c 5.551(1)
_cell_angle_alpha 99.01(1)
_cell_angle_beta 106.56(1)
_cell_angle_gamma 108.51(1)
_cell_volume 207.51
_cell_formula_units_Z 1
_symmetry_space_group_name_H-M 'P -1'
_symmetry_Int_Tables_number 2
_refine_ls_R_factor_all 0.0236
loop_
_symmetry_equiv_pos_site_id
_symmetry_equiv_pos_as_xyz
1 '-x, -y, -z'
2 'x, y, z'
loop_
_atom_type_symbol
_atom_type_oxidation_number
Co2+ 2
Na1+ 1
Se6+ 6
O2- -2
H1+ 1
loop_
_atom_site_label
_atom_site_type_symbol
_atom_site_symmetry_multiplicity
_atom_site_Wyckoff_symbol
_atom_site_fract_x
_atom_site_fract_y
_atom_site_fract_z
_atom_site_B_iso_or_equiv
_atom_site_occupancy
_atom_site_attached_hydrogens
Co1 Co2+ 1 a 0 0 0 0.0096(1) 1. 0
Na1 Na1+ 2 i 0.2908(2) 0.7496(2) 0.6644(2) 0.0234(2) 1. 0
Se1 Se6+ 2 i 0.33264(3) 0.23920(2) 0.66368(3) 0.0087(1) 1. 0
O1 O2- 2 i 0.3292(2) 0.1274(2) 0.9022(2) 0.0145(2) 1. 0
O2 O2- 2 i 0.2390(3) 0.0582(2) 0.3924(2) 0.0168(2) 1. 0
O3 O2- 2 i 0.1615(3) 0.3764(2) 0.6444(3) 0.0163(2) 1. 0
O4 O2- 2 i 0.6310(2) 0.3755(2) 0.7169(3) 0.0156(2) 1. 0
O5 O2- 2 i 0.9572(3) 0.2713(2) 0.0674(3) 0.0133(2) 1. 0
H1 H1+ 2 i 0.098(7) 0.366(5) 0.130(7) 0.026(8) 1. 0
H2 H1+ 2 i 0.887(8) 0.290(6) -0.032(8) 0.035(9) 1. 0
#End of TTdata_98683-ICSD