
#(C) 2019 by FIZ Karlsruhe - Leibniz Institute for Information Infrastructure.  All rights reserved.
data_98681-ICSD
_database_code_ICSD 98681
_audit_creation_date 2005-04-01
_chemical_name_systematic 'Disodium cadmium bis(sulfate(VI)) dihydrate'
_chemical_formula_structural 'Na2 Cd (S O4)2 (H2 O)2'
_chemical_formula_sum 'H4 Cd1 Na2 O10 S2'
_chemical_name_structure_type Kroehnkite-Na2Cu(SO4)2(H2O)2#Roselite
_exptl_crystal_density_diffrn 3.12
_publ_section_title

;
Crystal structures and crystal chemical relationships of kroehnkite- and
collinsite-type compounds Na2 Me(2+) (X O4)2 * 2(H2 O) (X = S, Me = Mn, Cd;
and X = Se, Me = Mn, Co, Ni, Zn, Cd) and K2 Co (Se O4)2 * 2(H2 O)
;
loop_
_citation_id
_citation_journal_full
_citation_year
_citation_journal_volume
_citation_page_first
_citation_page_last
_citation_journal_id_ASTM
primary 'Zeitschrift fuer Kristallographie' 2003 218 201 209 ZEKRDZ
loop_
_publ_author_name
'Wildner, M.'
'Stoilova, D.'
_cell_length_a 5.908(1)
_cell_length_b 13.033(1)
_cell_length_c 5.567(1)
_cell_angle_alpha 90
_cell_angle_beta 106.03(1)
_cell_angle_gamma 90
_cell_volume 411.99
_cell_formula_units_Z 2
_symmetry_space_group_name_H-M 'P 1 21/c 1'
_symmetry_Int_Tables_number 14
_refine_ls_R_factor_all 0.0191
loop_
_symmetry_equiv_pos_site_id
_symmetry_equiv_pos_as_xyz
1 'x, -y+1/2, z+1/2'
2 '-x, -y, -z'
3 '-x, y+1/2, -z+1/2'
4 'x, y, z'
loop_
_atom_type_symbol
_atom_type_oxidation_number
Cd2+ 2
Na1+ 1
S6+ 6
O2- -2
H1+ 1
loop_
_atom_site_label
_atom_site_type_symbol
_atom_site_symmetry_multiplicity
_atom_site_Wyckoff_symbol
_atom_site_fract_x
_atom_site_fract_y
_atom_site_fract_z
_atom_site_B_iso_or_equiv
_atom_site_occupancy
_atom_site_attached_hydrogens
Cd1 Cd2+ 2 a 0 0 0 0.0144(1) 1. 0
Na1 Na1+ 4 e 0.5808(1) 0.1181(1) 0.2628(1) 0.0297(1) 1. 0
S1 S6+ 4 e 0.23726(4) 0.11774(2) 0.58060(4) 0.0113(1) 1. 0
O1 O2- 4 e 0.0058(1) 0.1663(1) 0.5246(2) 0.0200(2) 1. 0
O2 O2- 4 e 0.2872(1) 0.0609(1) 0.8223(2) 0.0172(2) 1. 0
O3 O2- 4 e 0.2449(2) 0.0422(1) 0.3820(2) 0.0193(2) 1. 0
O4 O2- 4 e 0.4269(2) 0.1929(1) 0.5950(2) 0.0185(2) 1. 0
O5 O2- 4 e 0.8046(2) 0.1493(1) 0.9817(2) 0.0165(2) 1. 0
H1 H1+ 4 e 0.883(3) 0.202(1) 0.003(3) 0.020(4) 1. 0
H2 H1+ 4 e 0.711(4) 0.162(2) 0.848(4) 0.044(6) 1. 0
#End of TTdata_98681-ICSD