
#(C) 2019 by FIZ Karlsruhe - Leibniz Institute for Information Infrastructure.  All rights reserved.
data_98680-ICSD
_database_code_ICSD 98680
_audit_creation_date 2005-04-01
_chemical_name_systematic 'Disodium manganese bis(selenate(VI)) dihydrate'
_chemical_formula_structural 'Na2 Mn (Se O4)2 (H2 O)2'
_chemical_formula_sum 'H4 Mn1 Na2 O10 Se2'
_chemical_name_structure_type Kroehnkite-Na2Cu(SO4)2(H2O)2#Roselite
_exptl_crystal_density_diffrn 3.25
_publ_section_title

;
Crystal structures and crystal chemical relationships of kroehnkite- and
collinsite-type compounds Na2 Me(2+) (X O4)2 * 2(H2 O) (X = S, Me = Mn, Cd;
and X = Se, Me = Mn, Co, Ni, Zn, Cd) and K2 Co (Se O4)2 * 2(H2 O)
;
loop_
_citation_id
_citation_journal_full
_citation_year
_citation_journal_volume
_citation_page_first
_citation_page_last
_citation_journal_id_ASTM
primary 'Zeitschrift fuer Kristallographie' 2003 218 201 209 ZEKRDZ
loop_
_publ_author_name
'Wildner, M.'
'Stoilova, D.'
_cell_length_a 5.915(1)
_cell_length_b 13.325(1)
_cell_length_c 5.702(1)
_cell_angle_alpha 90
_cell_angle_beta 105.85(1)
_cell_angle_gamma 90
_cell_volume 432.33
_cell_formula_units_Z 2
_symmetry_space_group_name_H-M 'P 1 21/c 1'
_symmetry_Int_Tables_number 14
_refine_ls_R_factor_all 0.0229
loop_
_symmetry_equiv_pos_site_id
_symmetry_equiv_pos_as_xyz
1 'x, -y+1/2, z+1/2'
2 '-x, -y, -z'
3 '-x, y+1/2, -z+1/2'
4 'x, y, z'
loop_
_atom_type_symbol
_atom_type_oxidation_number
Mn2+ 2
Na1+ 1
Se6+ 6
O2- -2
H1+ 1
loop_
_atom_site_label
_atom_site_type_symbol
_atom_site_symmetry_multiplicity
_atom_site_Wyckoff_symbol
_atom_site_fract_x
_atom_site_fract_y
_atom_site_fract_z
_atom_site_B_iso_or_equiv
_atom_site_occupancy
_atom_site_attached_hydrogens
Mn1 Mn2+ 2 a 0 0 0 0.0134(1) 1. 0
Na1 Na1+ 4 e 0.5732(1) 0.1237(1) 0.2341(2) 0.0262(2) 1. 0
Se1 Se6+ 4 e 0.22640(2) 0.11868(1) 0.56767(2) 0.0108(1) 1. 0
O1 O2- 4 e -0.0289(2) 0.1735(1) 0.5051(2) 0.0195(2) 1. 0
O2 O2- 4 e 0.2745(2) 0.0552(1) 0.8253(2) 0.0170(2) 1. 0
O3 O2- 4 e 0.2377(2) 0.0395(1) 0.3490(2) 0.0194(2) 1. 0
O4 O2- 4 e 0.4425(2) 0.1976(1) 0.5852(2) 0.0187(2) 1. 0
O5 O2- 4 e 0.8126(2) 0.1400(1) 0.9656(2) 0.0160(2) 1. 0
H1 H1+ 4 e 0.894(3) 0.192(2) 0.986(3) 0.015(5) 1. 0
H2 H1+ 4 e 0.714(4) 0.150(2) 0.826(5) 0.036(6) 1. 0
#End of TTdata_98680-ICSD