
#(C) 2019 by FIZ Karlsruhe - Leibniz Institute for Information Infrastructure.  All rights reserved.
data_98709-ICSD
_database_code_ICSD 98709
_audit_creation_date 2005-04-01
_chemical_name_systematic 'Disodium catena-disilicate - gamma'
_chemical_formula_structural 'Na2 (Si2 O5)'
_chemical_formula_sum 'Na2 O5 Si2'
_exptl_crystal_density_diffrn 2.48
_publ_section_title

;
Room- and high-temperature single crystal diffraction studies on gamma-(Na2
Si2 O5): an interrupted framework with exclusively Q(3) - units
;
loop_
_citation_id
_citation_journal_full
_citation_year
_citation_journal_volume
_citation_page_first
_citation_page_last
_citation_journal_id_ASTM
primary 'Zeitschrift fuer Kristallographie' 2003 218 421 431 ZEKRDZ
loop_
_publ_author_name
'Kahlenberg, V.'
'Rakic, S.'
'Weidenthaler, C.'
_cell_length_a 33.326(2)
_cell_length_b 14.1457(7)
_cell_length_c 26.206(2)
_cell_angle_alpha 90
_cell_angle_beta 108.60(2)
_cell_angle_gamma 90
_cell_volume 11708.75
_cell_formula_units_Z 96
_symmetry_space_group_name_H-M 'C 1 2/c 1'
_symmetry_Int_Tables_number 15
_refine_ls_R_factor_all 0.058
loop_
_symmetry_equiv_pos_site_id
_symmetry_equiv_pos_as_xyz
1 'x, -y, z+1/2'
2 '-x, -y, -z'
3 '-x, y, -z+1/2'
4 'x, y, z'
5 'x+1/2, -y+1/2, z+1/2'
6 '-x+1/2, -y+1/2, -z'
7 '-x+1/2, y+1/2, -z+1/2'
8 'x+1/2, y+1/2, z'
loop_
_atom_type_symbol
_atom_type_oxidation_number
Si4+ 4
Na1+ 1
O2- -2
loop_
_atom_site_label
_atom_site_type_symbol
_atom_site_symmetry_multiplicity
_atom_site_Wyckoff_symbol
_atom_site_fract_x
_atom_site_fract_y
_atom_site_fract_z
_atom_site_B_iso_or_equiv
_atom_site_occupancy
_atom_site_attached_hydrogens
Si1 Si4+ 8 f 0.24777(4) 0.56048(9) 0.05128(5) 0.0170(4) 1. 0
Si2 Si4+ 8 f 0.23917(4) 0.04692(9) 0.04124(5) 0.0166(4) 1. 0
Si3 Si4+ 8 f 0.07150(4) 0.53556(9) 0.37853(5) 0.0162(4) 1. 0
Si4 Si4+ 8 f 0.24780(4) 0.43140(9) 0.14632(5) 0.0185(4) 1. 0
Si5 Si4+ 8 f 0.17091(4) 0.70864(9) 0.23336(5) 0.0170(4) 1. 0
Si6 Si4+ 8 f 0.16914(4) 0.18442(9) 0.02201(5) 0.0174(4) 1. 0
Si7 Si4+ 8 f 0.16435(4) 0.22737(9) 0.22905(5) 0.0180(4) 1. 0
Si8 Si4+ 8 f 0.07911(4) 0.47278(9) 0.27006(5) 0.0170(4) 1. 0
Si9 Si4+ 8 f 0.24469(4) 0.91043(9) 0.12706(5) 0.0197(4) 1. 0
Si10 Si4+ 8 f 0.00738(4) 0.69156(10) 0.36196(6) 0.0225(4) 1. 0
Si11 Si4+ 8 f 0.17984(4) 0.76733(9) 0.12627(5) 0.0164(4) 1. 0
Si12 Si4+ 8 f 0.16169(4) 0.65965(9) 0.02286(5) 0.0163(4) 1. 0
Si13 Si4+ 8 f 0.07436(4) -.02108(9) 0.87098(5) 0.0175(4) 1. 0
Si14 Si4+ 8 f 0.08888(4) 0.07746(9) -.02328(5) 0.0161(4) 1. 0
Si15 Si4+ 8 f 0.08338(4) 0.61034(9) 0.18289(5) 0.0182(4) 1. 0
Si16 Si4+ 8 f 0.00459(4) 0.18019(9) -.04400(5) 0.0193(4) 1. 0
Si17 Si4+ 8 f 0.01227(4) 0.70959(9) -.04857(5) 0.0202(4) 1. 0
Si18 Si4+ 8 f 0.09018(4) 0.10609(9) 0.18195(5) 0.0177(4) 1. 0
Si19 Si4+ 8 f 0.07775(4) 0.56405(9) -.02043(5) 0.0172(4) 1. 0
Si20 Si4+ 8 f 0.15842(4) 0.36175(9) 0.31528(5) 0.0179(4) 1. 0
Si21 Si4+ 8 f 0.00494(4) 0.84496(9) 0.86356(6) 0.0244(4) 1. 0
Si22 Si4+ 8 f 0.17291(4) 0.29030(9) 0.12221(5) 0.0187(4) 1. 0
Si23 Si4+ 8 f 0.08644(4) 0.03457(9) 0.76424(5) 0.0186(4) 1. 0
Si24 Si4+ 8 f 0.33690(4) 0.35073(9) 0.18699(5) 0.0174(4) 1. 0
Na1 Na1+ 8 f 0.15292(6) 0.00276(13) 0.10117(7) 0.0257(6) 1. 0
Na2 Na1+ 8 f 0.02182(6) 0.51892(14) 0.06640(8) 0.0298(6) 1. 0
Na3 Na1+ 8 f 0.31350(6) 0.48568(15) 0.27335(8) 0.0326(7) 1. 0
Na4 Na1+ 8 f 0.05263(7) 0.02161(15) 0.06776(8) 0.0371(7) 1. 0
Na5 Na1+ 8 f 0.25072(6) 0.13201(14) 0.31891(9) 0.0333(7) 1. 0
Na6 Na1+ 8 f 0.09274(6) 0.83013(14) 0.02644(8) 0.0287(6) 1. 0
Na7 Na1+ 8 f 0.20937(7) 0.47767(14) 0.25668(8) 0.0343(7) 1. 0
Na8 Na1+ 8 f 0.33940(6) 0.11134(14) 0.15610(8) 0.0270(6) 1. 0
Na9 Na1+ 8 f 0.15811(6) 0.11820(14) 0.34238(8) 0.0275(6) 1. 0
Na10 Na1+ 8 f 0.08488(6) 0.36469(14) 0.15765(7) 0.0265(6) 1. 0
Na11 Na1+ 8 f 0.13473(8) 0.51063(15) 0.09958(9) 0.0408(8) 1. 0
Na12 Na1+ 8 f 0.05292(8) 0.22990(15) 0.26089(10) 0.0475(9) 1. 0
Na13 Na1+ 8 f 0.24329(6) 0.14076(13) 0.15869(8) 0.0270(6) 1. 0
Na14 Na1+ 8 f 0.07455(7) 0.33259(15) 0.02753(10) 0.0431(8) 1. 0
Na15 Na1+ 8 f 0.19990(7) 0.27736(15) 0.43489(9) 0.0403(8) 1. 0
Na16 Na1+ 8 f 0.00464(6) 0.38259(14) 0.33139(8) 0.0319(7) 1. 0
Na17 Na1+ 8 f 0.09830(6) 0.25918(13) 0.39748(7) 0.0268(6) 1. 0
Na18 Na1+ 8 f 0.39546(7) 0.26494(14) 0.10464(8) 0.0355(7) 1. 0
Na19 Na1+ 8 f 0.15839(6) 0.09011(14) 0.47332(8) 0.0296(6) 1. 0
Na20 Na1+ 8 f 0.32768(6) 0.08791(15) 0.02942(9) 0.0391(7) 1. 0
Na21 Na1+ 8 f 0.00326(6) 0.89549(15) 0.32468(10) 0.0409(7) 1. 0
Na22 Na1+ 8 f 0.09217(6) 0.85097(14) 0.15377(7) 0.0287(6) 1. 0
Na23 Na1+ 8 f 0.05973(8) 0.73985(15) 0.26285(9) 0.0451(8) 1. 0
Na24 Na1+ 8 f 0.27082(8) 0.27988(15) 0.06204(9) 0.0466(8) 1. 0
O1 O2- 8 f 0.05842(10) 0.3867(2) 0.23307(13) 0.0237(10) 1. 0
O2 O2- 8 f 0.11777(10) 0.1749(2) -.00724(13) 0.0258(11) 1. 0
O3 O2- 8 f -.03998(10) 0.1344(3) -.06831(14) 0.0321(11) 1. 0
O4 O2- 8 f 0.04230(10) 0.1020(2) -.01834(13) 0.0272(11) 1. 0
O5 O2- 8 f 0.18940(10) 0.0798(2) 0.01840(14) 0.0292(11) 1. 0
O6 O2- 8 f 0.10745(10) -0.0111(2) 0.01325(12) 0.0234(10) 1. 0
O7 O2- 8 f 0.11239(10) 0.5974(2) 0.39688(13) 0.0267(11) 1. 0
O8 O2- 8 f 0.16520(11) 0.3310(2) 0.25800(13) 0.0260(11) 1. 0
O9 O2- 8 f 0.06494(10) 0.0304(2) 0.81207(13) 0.0253(11) 1. 0
O10 O2- 8 f 0.17484(10) 0.1962(2) 0.08616(12) 0.0243(10) 1. 0
O11 O2- 8 f 0.23704(12) 0.5201(3) 0.10379(13) 0.0342(11) 1. 0
O12 O2- 8 f 0.14484(10) 0.7471(2) -.01466(13) 0.0264(11) 1. 0
O13 O2- 8 f 0.21362(12) 0.3504(3) 0.11953(15) 0.0500(16) 1. 0
O14 O2- 8 f 0.12053(10) 0.6901(2) 0.20168(13) 0.0266(11) 1. 0
O15 O2- 8 f 0.14415(10) 0.8425(2) 0.11324(13) 0.0257(11) 1. 0
O16 O2- 8 f 0.22637(10) 0.8030(2) 0.12396(13) 0.0238(10) 1. 0
O17 O2- 8 f 0.07554(10) 0.5752(2) 0.23898(12) 0.0232(10) 1. 0
O18 O2- 8 f 0.11350(9) 0.2090(2) 0.19672(12) 0.0212(10) 1. 0
O19 O2- 8 f 0.12934(10) 0.5674(2) 0.01042(13) 0.0239(10) 1. 0
O20 O2- 8 f 0.19344(10) 0.6305(2) 0.27566(12) 0.0229(11) 1. 0
O21 O2- 8 f 0.05855(10) 0.6675(2) -.01152(13) 0.0250(11) 1. 0
O22 O2- 8 f 0.08513(10) 0.0680(2) -.08689(12) 0.0229(10) 1. 0
O23 O2- 8 f 0.20598(10) 0.6219(3) 0.01587(13) 0.0287(11) 1. 0
O24 O2- 8 f 0.02767(10) 0.5879(2) 0.38004(13) 0.0265(11) 1. 0
O25 O2- 8 f 0.05773(10) 0.4915(2) 0.31752(12) 0.0245(11) 1. 0
O26 O2- 8 f 0.05622(11) 0.4818(2) 0.00144(13) 0.0288(11) 1. 0
O27 O2- 8 f 0.19312(10) 0.7185(2) 0.18637(12) 0.0230(10) 1. 0
O28 O2- 8 f 0.13041(10) 0.4592(2) 0.30123(12) 0.0222(10) 1. 0
O29 O2- 8 f 0.26987(10) 0.1158(2) 0.08248(12) 0.0229(10) 1. 0
O30 O2- 8 f 0.01161(14) 0.7801(3) 0.8190(2) 0.0526(16) 1. 0
O31 O2- 8 f 0.18725(10) 0.2455(2) 0.18335(12) 0.0258(11) 1. 0
O32 O2- 8 f 0.23494(11) -0.0594(2) 0.06350(13) 0.0273(11) 1. 0
O33 O2- 8 f 0.08878(13) 0.5302(2) 0.14507(14) 0.0370(14) 1. 0
O34 O2- 8 f 0.07268(9) 0.5605(2) -.08525(12) 0.0190(10) 1. 0
O35 O2- 8 f 0.29166(10) 0.3823(3) 0.14320(13) 0.0311(11) 1. 0
O36 O2- 8 f 0.02570(10) -0.0492(2) 0.86751(13) 0.0235(10) 1. 0
O37 O2- 8 f 0.17301(10) 0.8159(2) 0.25843(12) 0.0230(11) 1. 0
O38 O2- 8 f 0.02293(16) 0.7427(3) 0.3191(2) 0.071(2) 1. 0
O39 O2- 8 f 0.18984(12) 0.2629(3) -.00362(14) 0.0355(12) 1. 0
O40 O2- 8 f 0.06511(10) 0.1143(2) 0.72268(13) 0.0230(10) 1. 0
O41 O2- 8 f 0.08196(10) -0.0726(2) 0.73820(12) 0.0232(11) 1. 0
O42 O2- 8 f 0.01013(13) 0.2519(3) 0.00583(18) 0.0588(16) 1. 0
O43 O2- 8 f 0.04303(10) 0.6799(3) 0.15386(15) 0.0380(11) 1. 0
O44 O2- 8 f 0.14149(13) 0.2839(3) 0.34527(16) 0.0429(14) 1. 0
O45 O2- 8 f -.01771(10) 0.6392(2) -.08889(14) 0.0293(11) 1. 0
O46 O2- 8 f 0.16886(10) 0.6745(2) 0.08692(12) 0.0229(10) 1. 0
O47 O2- 8 f 0.20417(11) 0.4020(3) 0.35112(17) 0.0498(16) 1. 0
O48 O2- 8 f 0.11333(11) 0.0311(2) 0.15704(13) 0.0275(11) 1. 0
O49 O2- 8 f 0.24647(10) 0.4677(2) 0.01283(12) 0.0236(10) 1. 0
O50 O2- 8 f 0.04392(10) 0.1333(3) 0.13911(13) 0.0275(11) 1. 0
O51 O2- 8 f 0.02145(12) 0.2416(3) -0.0848(2) 0.0671(16) 1. 0
O52 O2- 8 f 0.28946(11) 0.6202(3) 0.06697(14) 0.0322(11) 1. 0
O53 O2- 8 f 0.18478(10) 0.1445(2) 0.26832(13) 0.0252(11) 1. 0
O54 O2- 8 f 0.24867(11) 0.4713(2) 0.20225(13) 0.0267(11) 1. 0
O55 O2- 8 f 0.10764(10) 0.8985(2) 0.88440(13) 0.0267(11) 1. 0
O56 O2- 8 f 0.22577(11) 0.9816(2) 0.15952(13) 0.0285(11) 1. 0
O57 O2- 8 f 0.13789(10) 0.0487(2) 0.79450(13) 0.0229(10) 1. 0
O58 O2- 8 f 0.36050(12) 0.2745(2) 0.16372(14) 0.0320(11) 1. 0
O59 O2- 8 f 0.13051(11) 0.3468(3) 0.10405(14) 0.0333(12) 1. 0
O60 O2- 8 f 0.02729(12) 0.8002(3) -0.07615(19) 0.0598(16) 1. 0
loop_
_atom_site_aniso_label
_atom_site_aniso_type_symbol
_atom_site_aniso_U_11
_atom_site_aniso_U_22
_atom_site_aniso_U_33
_atom_site_aniso_U_12
_atom_site_aniso_U_13
_atom_site_aniso_U_23
Si1 Si4+ .0167(7) .0214(7) .0135(6) .0021(6) .0055(5) -.0005(5)
Si2 Si4+ .0183(7) .0174(7) .0159(6) -.0011(6) .0082(5) -.0013(5)
Si3 Si4+ .0175(7) .0173(7) .0157(6) .0007(5) .0079(5) .0020(5)
Si4 Si4+ .0180(7) .0228(7) .0148(6) -.0021(6) .0055(5) .0015(6)
Si5 Si4+ .0172(7) .0199(7) .0154(6) -.0007(6) .0075(5) .0004(6)
Si6 Si4+ .0190(7) .0196(7) .0136(6) -.0016(6) .0052(5) -.0024(5)
Si7 Si4+ .0182(7) .0188(7) .0177(7) .0004(6) .0068(5) .0006(6)
Si8 Si4+ .0188(7) .0174(7) .0163(6) -.0007(6) .0077(5) -.0010(5)
Si9 Si4+ .0176(7) .0207(7) .0204(7) -.0036(6) .0053(6) .0036(6)
Si10 Si4+ .0197(7) .0211(7) .0289(7) .0026(6) .0108(6) -.0013(6)
Si11 Si4+ .0168(6) .0179(7) .0165(7) -.0019(5) .0083(5) -.0010(5)
Si12 Si4+ .0160(6) .0185(7) .0140(6) .0006(5) .0041(5) -.0017(5)
Si13 Si4+ .0183(7) .0180(7) .0184(7) -.0004(6) .0089(6) -.0016(6)
Si14 Si4+ .0153(6) .0174(7) .0149(6) -.0002(5) .0040(5) -.0015(5)
Si15 Si4+ .0180(7) .0201(7) .0165(7) -.0022(6) .0055(5) -.0015(6)
Si16 Si4+ .0154(7) .0211(7) .0213(7) .0016(6) .0059(6) -.0013(6)
Si17 Si4+ .0188(7) .0183(7) .0227(7) .0016(6) .0055(6) -.0005(6)
Si18 Si4+ .0174(7) .0183(7) .0173(7) -.0001(5) .0054(5) -.0015(5)
Si19 Si4+ .0186(7) .0188(7) .0133(6) .0006(6) .0037(5) -.0017(5)
Si20 Si4+ .0187(7) .0189(7) .0162(7) .0001(6) .0058(5) .0006(6)
Si21 Si4+ .0166(7) .0178(7) .0376(8) -.0006(6) .0071(6) .0064(6)
Si22 Si4+ .0176(7) .0227(7) .0171(7) -.0020(6) .0073(5) -.0028(6)
Si23 Si4+ .0202(7) .0179(7) .0192(7) .0002(6) .0086(6) .0005(6)
Si24 Si4+ .0201(7) .0169(7) .0159(7) .0021(6) .0066(5) .0006(5)
Na1 Na1+ .0262(10) .0284(11) .0214(10) .0015(9) .0061(8) .0012(9)
Na2 Na1+ .0353(11) .0287(11) .0288(11) -.0026(9) .0148(9) -.0019(9)
Na3 Na1+ .0335(11) .0362(12) .0285(11) .0019(10) .0106(9) -.0044(9)
Na4 Na1+ .0522(14) .0297(12) .0296(11) -.0063(10) .0134(10) .0023(9)
Na5 Na1+ .0227(10) .0299(12) .0450(13) -.0020(9) .0075(9) .0061(10)
Na6 Na1+ .0261(11) .0300(11) .0312(11) -.0024(9) .0110(9) -.0032(9)
Na7 Na1+ .0470(13) .0296(12) .0350(12) -.0031(10) .0253(10) .0008(9)
Na8 Na1+ .0293(11) .0271(11) .0281(11) .0020(9) .0142(9) -.0014(9)
Na9 Na1+ .0285(11) .0290(11) .0295(11) .0001(9) .0156(9) .0018(9)
Na10 Na1+ .0285(11) .0260(11) .0277(11) .0033(9) .0128(9) .0011(9)
Na11 Na1+ .0613(15) .0344(12) .0382(12) .0059(11) .0319(12) .0093(10)
Na12 Na1+ .0710(17) .0279(12) .0608(15) .0081(12) .0452(14) .0046(11)
Na13 Na1+ .0242(10) .0262(11) .0278(11) .0018(9) .0044(8) -.0014(9)
Na14 Na1+ .0302(12) .0328(13) .0576(15) -.0054(10) .0016(11) .0062(11)
Na15 Na1+ .0582(15) .0307(12) .0346(12) .0062(11) .0185(11) .0014(10)
Na16 Na1+ .0251(11) .0279(11) .0401(12) -.0019(9) .0067(9) .0073(9)
Na17 Na1+ .0316(11) .0263(11) .0237(10) .0016(9) .0104(9) -.0013(9)
Na18 Na1+ .0520(13) .0246(11) .0421(13) .0069(10) .0320(11) .0086(10)
Na19 Na1+ .0271(11) .0316(11) .0335(11) .0012(9) .0146(9) .0038(9)
Na20 Na1+ .0286(11) .0377(13) .0438(13) -.0067(10) .0015(10) .0051(11)
Na21 Na1+ .0274(11) .0243(11) .0631(15) -.0028(9) .0032(11) .0010(11)
Na22 Na1+ .0257(11) .0392(12) .0241(10) .0062(9) .0120(9) .0014(9)
Na23 Na1+ .0802(17) .0245(11) .0441(13) .0082(12) .0388(13) .0024(10)
Na24 Na1+ .0834(18) .0299(12) .0393(13) -.0144(12) .0377(13) -.0095(10)
#End of TTdata_98709-ICSD