
#(C) 2019 by FIZ Karlsruhe - Leibniz Institute for Information Infrastructure.  All rights reserved.
data_98707-ICSD
_database_code_ICSD 98707
_audit_creation_date 2005-04-01
_audit_update_record 2010-02-01
_chemical_name_systematic 'Sodium potassium catena-disilicate - II'
_chemical_formula_structural 'Na K (Si2 O5)'
_chemical_formula_sum 'K1 Na1 O5 Si2'
_chemical_name_structure_type NaKSi2O5
_exptl_crystal_density_diffrn 2.68
_publ_section_title

;
High pressure mixed alkali disilicates in the system Na2-x Kx Si2 O5:
hydrothermal synthesis and crystal structures of Na K Si2 O5 - II and Na0.67
K1.33 Si2 O5
;
loop_
_citation_id
_citation_journal_full
_citation_year
_citation_journal_volume
_citation_page_first
_citation_page_last
_citation_journal_id_ASTM
primary 'Zeitschrift fuer Kristallographie' 2003 218 413 420 ZEKRDZ
loop_
_publ_author_name
'Rakic, S.'
'Kahlenberg, V.'
'Schmidt, B.C.'
_cell_length_a 4.852(1)
_cell_length_b 13.594(2)
_cell_length_c 7.463(1)
_cell_angle_alpha 90
_cell_angle_beta 91.20(2)
_cell_angle_gamma 90
_cell_volume 492.14
_cell_formula_units_Z 4
_symmetry_space_group_name_H-M 'P 1 21/c 1'
_symmetry_Int_Tables_number 14
_refine_ls_R_factor_all 0.032
loop_
_symmetry_equiv_pos_site_id
_symmetry_equiv_pos_as_xyz
1 'x, -y+1/2, z+1/2'
2 '-x, -y, -z'
3 '-x, y+1/2, -z+1/2'
4 'x, y, z'
loop_
_atom_type_symbol
_atom_type_oxidation_number
Si4+ 4
K1+ 1
Na1+ 1
O2- -2
loop_
_atom_site_label
_atom_site_type_symbol
_atom_site_symmetry_multiplicity
_atom_site_Wyckoff_symbol
_atom_site_fract_x
_atom_site_fract_y
_atom_site_fract_z
_atom_site_B_iso_or_equiv
_atom_site_occupancy
_atom_site_attached_hydrogens
Si1 Si4+ 4 e 0.1965(2) 0.0486(1) 0.7840(1) 0.0137(2) 1. 0
Si2 Si4+ 4 e 0.7022(2) 0.1301(1) -0.0142(1) 0.0138(2) 1. 0
K1 K1+ 4 e 0.2043(2) 0.2002(1) 0.2861(1) 0.0264(2) 1. 0
Na1 Na1+ 4 e 0.7241(3) 0.4056(1) 0.0264(2) 0.0198(4) 1. 0
O1 O2- 4 e 0.8735(5) 0.4302(2) 0.3332(3) 0.0170(6) 1. 0
O2 O2- 4 e 0.7785(6) 0.2408(2) 0.0082(4) 0.0217(6) 1. 0
O3 O2- 4 e 0.2504(5) 0.4262(2) 0.0824(3) 0.0181(6) 1. 0
O4 O2- 4 e 0.3756(5) 0.1144(2) -0.0703(3) 0.0182(6) 1. 0
O5 O2- 4 e 0.7474(6) 0.0692(2) 0.1768(3) 0.0178(6) 1. 0
loop_
_atom_site_aniso_label
_atom_site_aniso_type_symbol
_atom_site_aniso_U_11
_atom_site_aniso_U_22
_atom_site_aniso_U_33
_atom_site_aniso_U_12
_atom_site_aniso_U_13
_atom_site_aniso_U_23
Si1 Si4+ .0125(5) .0135(4) .0151(5) .0006(4) .0006(4) .0001(4)
Si2 Si4+ .0132(5) .0132(5) .0150(5) .0006(4) .0004(4) -.0005(4)
K1 K1+ .0282(5) .0251(4) .0259(5) -.0020(4) .0020(4) -.0030(4)
Na1 Na1+ .0207(8) .0176(7) .0213(7) -.0004(6) .0006(6) .0005(5)
O1 O2- .0127(13) .0202(13) .0180(13) -.0011(10) .0018(10) .0011(10)
O2 O2- .0253(16) .0160(12) .0238(15) -.0022(11) .0024(12) .0003(10)
O3 O2- .0171(14) .0208(13) .0165(12) -.0022(10) .0018(10) -.0012(10)
O4 O2- .0146(14) .0185(12) .0215(13) .0023(10) .0007(10) -.0032(10)
O5 O2- .0224(15) .0155(12) .0155(12) .0021(10) .0017(10) .0002(9)
#End of TTdata_98707-ICSD