
#(C) 2019 by FIZ Karlsruhe - Leibniz Institute for Information Infrastructure.  All rights reserved.
data_98742-ICSD
_database_code_ICSD 98742
_audit_creation_date 2005-04-01
_audit_update_record 2006-04-01
_chemical_name_systematic 'Trisodium diiron(III) tris(phosphate(V))'
_chemical_formula_structural 'Na3 Fe2 (P O4)3'
_chemical_formula_sum 'Fe2 Na3 O12 P3'
_chemical_name_structure_type Na3+xFe2(AsO4)3
_exptl_crystal_density_diffrn 3.34
_publ_section_title

;
Synthesis and crystal structure of a new trigonal modification of Na3 Fe2 (P
O4)3
;
loop_
_citation_id
_citation_journal_full
_citation_year
_citation_journal_volume
_citation_page_first
_citation_page_last
_citation_journal_id_ASTM
primary 'Zhurnal Neorganicheskoi Khimii' 2002 47 1423 1426 ZNOKAQ
loop_
_publ_author_name
'Belokoneva, E.L.'
'Ruchkina, E.A.'
'Dimitrova, O.V.'
'Stefanovich, S.Yu.'
_cell_length_a 13.39(1)
_cell_length_b 13.39(1)
_cell_length_c 17.91(2)
_cell_angle_alpha 90
_cell_angle_beta 90
_cell_angle_gamma 120
_cell_volume 2780.91
_cell_formula_units_Z 12
_symmetry_space_group_name_H-M 'R -3 c H'
_symmetry_Int_Tables_number 167
_refine_ls_R_factor_all 0.0404
loop_
_symmetry_equiv_pos_site_id
_symmetry_equiv_pos_as_xyz
1 'x-y, -y, -z+1/2'
2 '-x, -x+y, -z+1/2'
3 'y, x, -z+1/2'
4 'x-y, x, -z'
5 'y, -x+y, -z'
6 '-x, -y, -z'
7 '-x+y, y, z+1/2'
8 'x, x-y, z+1/2'
9 '-y, -x, z+1/2'
10 '-x+y, -x, z'
11 '-y, x-y, z'
12 'x, y, z'
13 'x-y+2/3, -y+1/3, -z+5/6'
14 '-x+2/3, -x+y+1/3, -z+5/6'
15 'y+2/3, x+1/3, -z+5/6'
16 'x-y+2/3, x+1/3, -z+1/3'
17 'y+2/3, -x+y+1/3, -z+1/3'
18 '-x+2/3, -y+1/3, -z+1/3'
19 '-x+y+2/3, y+1/3, z+5/6'
20 'x+2/3, x-y+1/3, z+5/6'
21 '-y+2/3, -x+1/3, z+5/6'
22 '-x+y+2/3, -x+1/3, z+1/3'
23 '-y+2/3, x-y+1/3, z+1/3'
24 'x+2/3, y+1/3, z+1/3'
25 'x-y+1/3, -y+2/3, -z+1/6'
26 '-x+1/3, -x+y+2/3, -z+1/6'
27 'y+1/3, x+2/3, -z+1/6'
28 'x-y+1/3, x+2/3, -z+2/3'
29 'y+1/3, -x+y+2/3, -z+2/3'
30 '-x+1/3, -y+2/3, -z+2/3'
31 '-x+y+1/3, y+2/3, z+1/6'
32 'x+1/3, x-y+2/3, z+1/6'
33 '-y+1/3, -x+2/3, z+1/6'
34 '-x+y+1/3, -x+2/3, z+2/3'
35 '-y+1/3, x-y+2/3, z+2/3'
36 'x+1/3, y+2/3, z+2/3'
loop_
_atom_type_symbol
_atom_type_oxidation_number
Na1+ 1
Fe3+ 3
P5+ 5
Na1+ 1
O2- -2
loop_
_atom_site_label
_atom_site_type_symbol
_atom_site_symmetry_multiplicity
_atom_site_Wyckoff_symbol
_atom_site_fract_x
_atom_site_fract_y
_atom_site_fract_z
_atom_site_B_iso_or_equiv
_atom_site_occupancy
_atom_site_attached_hydrogens
Na1 Na1+ 6 b 0 0 0 1.02(7) 1. 0
Fe1 Fe3+ 18 e 0.21902(5) 0 0.25 0.48(2) 1. 0
Fe2 Fe3+ 6 a 0 0 0.25 0.80(2) 1. 0
P1 P5+ 36 f 0.47122(8) 0.14835(8) 0.97740(5) 0.45(2) 1. 0
Na2 Na1+ 36 f 0.4403(2) 0.1264(2) 0.7777(1) 0.90(5) 0.833 0
O1 O2- 36 f 0.1474(2) 0.0803(2) 0.1873(1) 0.68(6) 1. 0
O2 O2- 36 f 0.3498(2) 0.0606(2) 0.1791(2) 0.78(7) 1. 0
O3 O2- 36 f 0.5360(2) 0.0700(2) 0.1545(1) 0.77(7) 1. 0
O4 O2- 36 f 0.1644(2) 0.1481(3) 0.4362(1) 0.97(7) 1. 0
#End of TTdata_98742-ICSD