
#(C) 2019 by FIZ Karlsruhe - Leibniz Institute for Information Infrastructure.  All rights reserved.
data_9877-ICSD
_database_code_ICSD 9877
_audit_creation_date 1986-10-03
_audit_update_record 2006-04-01
_chemical_name_systematic 'Disodium hexafluorozirconate - gamma'
_chemical_formula_structural 'Na2 (Zr F6)'
_chemical_formula_sum 'F6 Na2 Zr1'
_chemical_name_structure_type Na2ZrF6
_exptl_crystal_density_diffrn 3.47
_publ_section_title 'The cyrstal structure of gamma-Na2 Zr F6'
loop_
_citation_id
_citation_journal_full
_citation_year
_citation_journal_volume
_citation_page_first
_citation_page_last
_citation_journal_id_ASTM
primary

;
Acta Crystallographica, Section B: Structural Crystallography and Crystal
Chemistry
; 1969 25 2164 2166 ACBCAR
loop_
_publ_author_name
'Brunton, G.'
_cell_length_a 5.5562(7)
_cell_length_b 5.4069(6)
_cell_length_c 16.073(2)
_cell_angle_alpha 90.
_cell_angle_beta 95.886(6)
_cell_angle_gamma 90.
_cell_volume 480.32
_cell_formula_units_Z 4
_symmetry_space_group_name_H-M 'P 1 21/c 1'
_symmetry_Int_Tables_number 14
_refine_ls_R_factor_all 0.0536
loop_
_symmetry_equiv_pos_site_id
_symmetry_equiv_pos_as_xyz
1 'x, -y+1/2, z+1/2'
2 '-x, -y, -z'
3 '-x, y+1/2, -z+1/2'
4 'x, y, z'
loop_
_atom_type_symbol
_atom_type_oxidation_number
Na1+ 1
Zr4+ 4
F1- -1
loop_
_atom_site_label
_atom_site_type_symbol
_atom_site_symmetry_multiplicity
_atom_site_Wyckoff_symbol
_atom_site_fract_x
_atom_site_fract_y
_atom_site_fract_z
_atom_site_B_iso_or_equiv
_atom_site_occupancy
_atom_site_attached_hydrogens
Na1 Na1+ 4 e 0.3267(8) 0.499(2) 0.4077(3) . 1. 0
Na2 Na1+ 4 e 0.2467(9) 0.962(2) 0.2477(4) . 1. 0
Zr1 Zr4+ 4 e 0.1761(2) 0.4480(3) 0.09890(5) . 1. 0
F1 F1- 4 e 0.020(2) 0.709(2) 0.3358(5) . 1. 0
F2 F1- 4 e 0.055(2) 0.176(2) 0.3503(5) . 1. 0
F3 F1- 4 e 0.346(2) 0.224(2) 0.0242(5) . 1. 0
F4 F1- 4 e 0.598(2) 0.229(2) 0.3648(4) . 1. 0
F5 F1- 4 e 0.430(2) 0.286(2) 0.1835(4) . 1. 0
F6 F1- 4 e 0.871(2) 0.328(2) 0.0116(4) . 1. 0
loop_
_atom_site_aniso_label
_atom_site_aniso_type_symbol
_atom_site_aniso_beta_11
_atom_site_aniso_beta_22
_atom_site_aniso_beta_33
_atom_site_aniso_beta_12
_atom_site_aniso_beta_13
_atom_site_aniso_beta_23
Na1 Na1+ 0.026(3) 0.025(3) 0.0027(3) -.002(2) 0.0011(6) -.0004(5)
Na2 Na1+ 0.026(2) 0.033(4) 0.0034(3) 0.004(2) 0.0024(6) 0.0015(6)
Zr1 Zr4+ 0.0210(6) 0.018(2) 0.00200(7) 0.0008(3) 0.0004(2) 0.00010(7)
F1 F1- 0.031(3) 0.015(4) 0.0033(3) 0.002(3) -.0004(7) 0.0002(8)
F2 F1- 0.027(3) 0.035(4) 0.0033(3) -.007(3) 0.0014(6) 0.0010(9)
F3 F1- 0.031(3) 0.022(4) 0.0039(3) 0.001(3) 0.0005(7) 0.0001(9)
F4 F1- 0.030(3) 0.028(4) 0.0027(3) 0.003(2) 0.0011(6) 0.0007(7)
F5 F1- 0.029(3) 0.037(5) 0.0030(3) -.001(3) -.0011(7) 0.0031(9)
F6 F1- 0.023(2) 0.017(4) 0.0032(3) -.004(2) -.0009(6) 0.0009(8)
#End of TTdata_9877-ICSD