
#(C) 2019 by FIZ Karlsruhe - Leibniz Institute for Information Infrastructure.  All rights reserved.
data_98870-ICSD
_database_code_ICSD 98870
_audit_creation_date 2005-04-01
_chemical_name_systematic 'Sodium tetracalcium pentaniobate)'
_chemical_formula_structural 'Na Ca4 (Nb5 O17)'
_chemical_formula_sum 'Ca4 Na1 Nb5 O17'
_exptl_crystal_density_diffrn 4.5
_publ_section_title

;
Superspace description of Na Ca4 Nb5 O17 (a perovskite- related compound of
the type An Bn O3n+2) as a modulated layer structure
;
loop_
_citation_id
_citation_journal_full
_citation_year
_citation_journal_volume
_citation_page_first
_citation_page_last
_citation_journal_id_ASTM
primary 'Acta Crystallographica, Section B: Structural Science' 2004 60 21 31
ASBSDK
loop_
_publ_author_name
'Elcoro, L.'
'Zuniga, F.J.'
'Perez-Mato, J.M.'
_cell_length_a 7.710(2)
_cell_length_b 64.24(1)
_cell_length_c 5.4838(6)
_cell_angle_alpha 90
_cell_angle_beta 90
_cell_angle_gamma 89.98(1)
_cell_volume 2716.07
_cell_formula_units_Z 8
_symmetry_space_group_name_H-M 'C 1 1 21/d'
_symmetry_Int_Tables_number 14
_refine_ls_R_factor_all 0.035
loop_
_symmetry_equiv_pos_site_id
_symmetry_equiv_pos_as_xyz
1 '-x+3/4, -y+1/4, z+1/2'
2 'x+1/4, y+3/4, -z+1/2'
3 '-x, -y, -z'
4 'x, y, z'
5 '-x+1/4, -y+3/4, z+1/2'
6 'x+3/4, y+1/4, -z+1/2'
7 '-x+1/2, -y+1/2, -z'
8 'x+1/2, y+1/2, z'
loop_
_atom_type_symbol
_atom_type_oxidation_number
Nb5+ 5
Ca2+ 2
Na1+ 1
Ca2+ 2
Na1+ 1
Ca2+ 2
Na1+ 1
O2- -2
loop_
_atom_site_label
_atom_site_type_symbol
_atom_site_symmetry_multiplicity
_atom_site_Wyckoff_symbol
_atom_site_fract_x
_atom_site_fract_y
_atom_site_fract_z
_atom_site_B_iso_or_equiv
_atom_site_occupancy
_atom_site_attached_hydrogens
Nb1 Nb5+ 4 c 0 0 0.5 0.005(1) 1. 0
Nb2 Nb5+ 4 b 0.5 0 0.5 0.005(1) 1. 0
Nb3 Nb5+ 8 e 0.0012(1) 0.0453(1) -0.0007(1) 0.005(1) 1. 0
Nb4 Nb5+ 8 e 0.4996(1) 0.0456(1) 0.0007(1) 0.005(1) 1. 0
Nb5 Nb5+ 8 e -0.0011(1) 0.0885(1) 0.4885(1) 0.005(1) 1. 0
Nb6 Nb5+ 8 e 0.5061(1) 0.0890(1) 0.4780(1) 0.005(1) 1. 0
Ca1 Ca2+ 8 e 0.7516(1) 0.1109(1) -0.0785(1) 0.008(1) 1. 0
Ca2 Ca2+ 8 e 0.2577(1) 0.1044(1) -0.0075(1) 0.013(1) 1. 0
Ca3 Ca2+ 8 e 0.2513(1) 0.0028(1) -0.0067(1) 0.007(1) 0.667 0
Na1 Na1+ 8 e 0.2513(1) 0.0028(1) -0.0067(1) 0.007(1) 0.333 0
Ca4 Ca2+ 8 e 0.2517(1) 0.0472(1) 0.5045(1) 0.008(1) 0.667 0
Na2 Na1+ 8 e 0.2517(1) 0.0472(1) 0.5045(1) 0.008(1) 0.333 0
Ca5 Ca2+ 8 e 0.7504(2) 0.0414(1) 0.4972(1) 0.011(1) 0.667 0
Na3 Na1+ 8 e 0.7504(2) 0.0414(1) 0.4972(1) 0.011(1) 0.333 0
O1 O2- 8 e 0.2492(3) -0.0023(1) 0.4207(4) 0.009(1) 1. 0
O2 O2- 8 e 0.0357(3) -0.0174(1) 0.7909(4) 0.009(1) 1. 0
O3 O2- 8 e 0.0440(3) 0.0248(1) 0.7077(4) 0.009(1) 1. 0
O4 O2- 8 e 0.3570(3) 0.0249(1) 0.7073(4) 0.009(1) 1. 0
O5 O2- 8 e 0.4644(3) -0.0173(1) 0.7910(4) 0.010(1) 1. 0
O6 O2- 8 e 0.7499(3) 0.0428(1) -0.0717(3) 0.010(1) 1. 0
O7 O2- 8 e 0.2496(3) 0.0395(1) 0.0781(3) 0.006(1) 1. 0
O8 O2- 8 e -0.0269(3) 0.0596(1) 0.2994(4) 0.007(1) 1. 0
O9 O2- 8 e 0.0521(3) 0.0669(1) 0.7897(4) 0.010(1) 1. 0
O10 O2- 8 e 0.4483(3) 0.0676(1) 0.7950(4) 0.009(1) 1. 0
O11 O2- 8 e 0.5258(3) 0.0590(1) 0.3048(4) 0.007(1) 1. 0
O12 O2- 8 e 0.7507(3) 0.0848(1) 0.5766(3) 0.009(1) 1. 0
O13 O2- 8 e 0.2511(3) 0.0843(1) 0.4123(3) 0.008(1) 1. 0
O14 O2- 8 e -0.0269(3) 0.1055(1) 0.2128(4) 0.009(1) 1. 0
O15 O2- 8 e 0.0282(2) 0.1097(1) 0.7037(4) 0.008(1) 1. 0
O16 O2- 8 e 0.4790(3) 0.1118(1) 0.6846(4) 0.009(1) 1. 0
O17 O2- 8 e 0.5344(2) 0.1019(1) 0.1897(4) 0.010(1) 1. 0
#End of TTdata_98870-ICSD