
#(C) 2019 by FIZ Karlsruhe - Leibniz Institute for Information Infrastructure.  All rights reserved.
data_99357-ICSD
_database_code_ICSD 99357
_audit_creation_date 2005-04-01
_audit_update_record 2012-02-01
_chemical_name_systematic 'Cobalt sodium tecto-alumosilicate *'
_chemical_formula_structural 'Co1.62 Na0.61 (Al3.8 Si32.2 O72)'
_chemical_formula_sum 'Al3.8 Co1.62 Na0.61 O72 Si32.2'
_chemical_name_structure_type Ferrierite-frame
_chemical_name_mineral 'Ferrierite (Co-exchanged, dehydrated)'
_exptl_crystal_density_diffrn 1.91
_cell_measurement_temperature 1083.
_publ_section_title

;
Cation migration and structural modification of Co-exchanged ferrierite upon
heating: a time-resolved X-ray powder diffraction study
;
loop_
_citation_id
_citation_journal_full
_citation_year
_citation_journal_volume
_citation_page_first
_citation_page_last
_citation_journal_id_ASTM
primary 'Journal of Physical Chemistry B' 2003 107 12973 12980 JPCBFK
loop_
_publ_author_name
'Dalconi, M.C.'
'Alberti, A.'
'Cruciani, G.'
_cell_length_a 18.819(1)
_cell_length_b 14.054(1)
_cell_length_c 7.467(1)
_cell_angle_alpha 90
_cell_angle_beta 90
_cell_angle_gamma 90
_cell_volume 1974.89
_cell_formula_units_Z 1
_symmetry_space_group_name_H-M 'I m m m'
_symmetry_Int_Tables_number 71
_refine_ls_R_factor_all 0.025
loop_
_symmetry_equiv_pos_site_id
_symmetry_equiv_pos_as_xyz
1 'x, y, -z'
2 'x, -y, z'
3 '-x, y, z'
4 '-x, -y, -z'
5 '-x, -y, z'
6 '-x, y, -z'
7 'x, -y, -z'
8 'x, y, z'
9 'x+1/2, y+1/2, -z+1/2'
10 'x+1/2, -y+1/2, z+1/2'
11 '-x+1/2, y+1/2, z+1/2'
12 '-x+1/2, -y+1/2, -z+1/2'
13 '-x+1/2, -y+1/2, z+1/2'
14 '-x+1/2, y+1/2, -z+1/2'
15 'x+1/2, -y+1/2, -z+1/2'
16 'x+1/2, y+1/2, z+1/2'
loop_
_atom_type_symbol
_atom_type_oxidation_number
Si4+ 4
Al3+ 3
Si4+ 4
Al3+ 3
Si4+ 4
Al3+ 3
Si4+ 4
Al3+ 3
O2- -2
Co2+ 2
Na1+ 1
loop_
_atom_site_label
_atom_site_type_symbol
_atom_site_symmetry_multiplicity
_atom_site_Wyckoff_symbol
_atom_site_fract_x
_atom_site_fract_y
_atom_site_fract_z
_atom_site_B_iso_or_equiv
_atom_site_occupancy
_atom_site_attached_hydrogens
Si1 Si4+ 4 e 0.1558(3) 0 0 0.0660(4) 0.8944 0
Al1 Al3+ 4 e 0.1558(3) 0 0 0.0660(4) 0.1056 0
Si2 Si4+ 8 n 0.0826(2) 0.2014(3) 0 0.0660(4) 0.8944 0
Al2 Al3+ 8 n 0.0826(2) 0.2014(3) 0 0.0660(4) 0.1056 0
Si3 Si4+ 8 m 0.2726(2) 0 0.2906(4) 0.0660(4) 0.8944 0
Al3 Al3+ 8 m 0.2726(2) 0 0.2906(4) 0.0660(4) 0.1056 0
Si4 Si4+ 16 o 0.3251(1) 0.2020(2) 0.2029(3) 0.0660(4) 0.8944 0
Al4 Al3+ 16 o 0.3251(1) 0.2020(2) 0.2029(3) 0.0660(4) 0.1056 0
O1 O2- 4 g 0 0.2212(7) 0 0.0846(8) 0.80(1) 0
O2 O2- 4 f 0.2479(4) 0 0.5 0.0846(8) 1. 0
O3 O2- 8 n 0.1003(3) 0.0898(5) 0 0.0846(8) 1. 0
O4 O2- 8 m 0.2002(3) 0 0.1756(9) 0.0846(8) 1. 0
O5 O2- 8 k 0.25 0.25 0.25 0.0846(8) 1. 0
O6 O2- 8 n 0.1560(3) 0.2742(4) 0.5 0.0846(8) 1. 0
O7 O2- 16 o 0.1164(2) 0.2495(3) 0.1774(6) 0.0846(8) 1. 0
O8 O2- 16 o 0.3211(2) 0.0908(3) 0.2513(5) 0.0846(8) 1. 0
O9 O2- 4 g 0 0.184(6) 0 0.0846(8) 0.21(1) 0
Co1 Co2+ 4 i 0 0 0.028(2) 0.10(3) 0.197(1) 0
Co2 Co2+ 8 n 0.235(2) 0.189(3) 0.5 0.13(2) 0.030(1) 0
Co3 Co2+ 8 n 0.387(2) 0.055(3) 0 0.14(2) 0.026(1) 0
Co4 Co2+ 16 o 0.049(1) 0.270(1) 0.390(4) 0.15(1) 0.024(1) 0
Na1 Na1+ 16 o 0.062(1) 0.418(2) 0.042(8) 0.11(2) 0.038(1) 0
#End of TTdata_99357-ICSD