
#(C) 2019 by FIZ Karlsruhe - Leibniz Institute for Information Infrastructure.  All rights reserved.
data_99439-ICSD
_database_code_ICSD 99439
_audit_creation_date 2005-04-01
_audit_update_record 2008-08-01
_chemical_name_systematic 'Barium manganese sodium oxide vanadate (5/1/2/5/2)'
_chemical_formula_structural 'Ba5 Mn Na2 O4.98 (V O4)2'
_chemical_formula_sum 'Ba5 Mn1 Na2 O12.98 V2'
_exptl_crystal_density_diffrn 5.01
_publ_section_title

;
Electrosynthesis and crystal structure of the new 15R hexagonal perovskite Ba5
Mn Na2 V2 O13
;
loop_
_citation_id
_citation_journal_full
_citation_year
_citation_journal_volume
_citation_page_first
_citation_page_last
_citation_journal_id_ASTM
primary 'Journal of Solid State Chemistry' 2004 177 1416 1424 JSSCBI
loop_
_publ_author_name
'Bendraoua, A.'
'Quarez, E.'
'Abraham, F.'
'Mentre, O.'
_cell_length_a 5.8490(6)
_cell_length_b 5.8490(6)
_cell_length_c 36.856(5)
_cell_angle_alpha 90
_cell_angle_beta 90
_cell_angle_gamma 120
_cell_volume 1091.95
_cell_formula_units_Z 3
_symmetry_space_group_name_H-M 'R -3 m H'
_symmetry_Int_Tables_number 166
_refine_ls_R_factor_all 0.0472
loop_
_symmetry_equiv_pos_site_id
_symmetry_equiv_pos_as_xyz
1 'x-y, -y, -z'
2 '-x, -x+y, -z'
3 'y, x, -z'
4 'x-y, x, -z'
5 'y, -x+y, -z'
6 '-x, -y, -z'
7 '-x+y, y, z'
8 'x, x-y, z'
9 '-y, -x, z'
10 '-x+y, -x, z'
11 '-y, x-y, z'
12 'x, y, z'
13 'x-y+2/3, -y+1/3, -z+1/3'
14 '-x+2/3, -x+y+1/3, -z+1/3'
15 'y+2/3, x+1/3, -z+1/3'
16 'x-y+2/3, x+1/3, -z+1/3'
17 'y+2/3, -x+y+1/3, -z+1/3'
18 '-x+2/3, -y+1/3, -z+1/3'
19 '-x+y+2/3, y+1/3, z+1/3'
20 'x+2/3, x-y+1/3, z+1/3'
21 '-y+2/3, -x+1/3, z+1/3'
22 '-x+y+2/3, -x+1/3, z+1/3'
23 '-y+2/3, x-y+1/3, z+1/3'
24 'x+2/3, y+1/3, z+1/3'
25 'x-y+1/3, -y+2/3, -z+2/3'
26 '-x+1/3, -x+y+2/3, -z+2/3'
27 'y+1/3, x+2/3, -z+2/3'
28 'x-y+1/3, x+2/3, -z+2/3'
29 'y+1/3, -x+y+2/3, -z+2/3'
30 '-x+1/3, -y+2/3, -z+2/3'
31 '-x+y+1/3, y+2/3, z+2/3'
32 'x+1/3, x-y+2/3, z+2/3'
33 '-y+1/3, -x+2/3, z+2/3'
34 '-x+y+1/3, -x+2/3, z+2/3'
35 '-y+1/3, x-y+2/3, z+2/3'
36 'x+1/3, y+2/3, z+2/3'
loop_
_atom_type_symbol
_atom_type_oxidation_number
Ba2+ 2
Mn3+ 3.96
V5+ 5
Na1+ 1
O2- -2
loop_
_atom_site_label
_atom_site_type_symbol
_atom_site_symmetry_multiplicity
_atom_site_Wyckoff_symbol
_atom_site_fract_x
_atom_site_fract_y
_atom_site_fract_z
_atom_site_B_iso_or_equiv
_atom_site_occupancy
_atom_site_attached_hydrogens
Ba1 Ba2+ 18 h 0.0260(4) 0.0520(8) 0.30563(5) 0.0192(14) 0.333 0
Ba2 Ba2+ 6 c 0 0 0.09129(3) 0.0182(4) 1. 0
Ba3 Ba2+ 3 b 0 0 0.5 0.0265(6) 1. 0
Mn1 Mn3+ 3 a 0 0 0 0.0147(11) 1. 0
V1 V5+ 6 c 0 0 0.20858(8) 0.0083(7) 1. 0
Na1 Na1+ 6 c 0 0 0.5991(3) 0.019(2) 1. 0
O1 O2- 18 h 0.153(1) 0.306(2) 0.027(3) 0.028(3) 0.83(2) 0
O2 O2- 18 h 0.1563(8) 0.3126(16) 0.2250(2) 0.022(2) 1. 0
O3 O2- 6 c 0 0 0.1628(4) 0.034(5) 1. 0
#End of TTdata_99439-ICSD