
#(C) 2019 by FIZ Karlsruhe - Leibniz Institute for Information Infrastructure.  All rights reserved.
data_99549-ICSD
_database_code_ICSD 99549
_audit_creation_date 2005-04-01
_chemical_name_systematic 'Sodium uranate(V)'
_chemical_formula_structural 'Na (U O3)'
_chemical_formula_sum 'Na1 O3 U1'
_chemical_name_structure_type Perovskite-GdFeO3
_exptl_crystal_density_diffrn 7.27
_publ_section_title
'Antiferromagnetism in M U O3 (M= Na, K, Rb) studied by neutron diffraction'
loop_
_citation_id
_citation_journal_full
_citation_year
_citation_journal_volume
_citation_page_first
_citation_page_last
_citation_journal_id_ASTM
primary 'Journal of Solid State Chemistry' 2004 177 2231 2236 JSSCBI
loop_
_publ_author_name
'Van den Berghe, S.'
'Leenaers, A.'
'Ritter, C.'
_cell_length_a 5.7739(2)
_cell_length_b 5.9051(2)
_cell_length_c 8.2784(2)
_cell_angle_alpha 90
_cell_angle_beta 90
_cell_angle_gamma 90
_cell_volume 282.26
_cell_formula_units_Z 4
_symmetry_space_group_name_H-M 'P b n m'
_symmetry_Int_Tables_number 62
_refine_ls_R_factor_all 0.0294
loop_
_symmetry_equiv_pos_site_id
_symmetry_equiv_pos_as_xyz
1 '-x+1/2, y+1/2, z'
2 'x, y, -z+1/2'
3 'x+1/2, -y+1/2, z+1/2'
4 '-x, -y, -z'
5 'x+1/2, -y+1/2, -z'
6 '-x, -y, z+1/2'
7 '-x+1/2, y+1/2, -z+1/2'
8 'x, y, z'
loop_
_atom_type_symbol
_atom_type_oxidation_number
Na1+ 1
U5+ 5
O2- -2
loop_
_atom_site_label
_atom_site_type_symbol
_atom_site_symmetry_multiplicity
_atom_site_Wyckoff_symbol
_atom_site_fract_x
_atom_site_fract_y
_atom_site_fract_z
_atom_site_B_iso_or_equiv
_atom_site_occupancy
_atom_site_attached_hydrogens
Na1 Na1+ 4 c -0.0075(8) 0.0306(6) 0.25 . 1. 0
U1 U5+ 4 b 0.5 0 0 . 1. 0
O1 O2- 4 c 0.0959(4) 0.4671(4) 0.25 . 1. 0
O2 O2- 8 d 0.6982(3) 0.2984(3) 0.0502(2) . 1. 0
loop_
_atom_site_aniso_label
_atom_site_aniso_type_symbol
_atom_site_aniso_U_11
_atom_site_aniso_U_22
_atom_site_aniso_U_33
_atom_site_aniso_U_12
_atom_site_aniso_U_13
_atom_site_aniso_U_23
Na1 Na1+ .0142(11) .0152(12) .0067(6) 0. 0. 0.
U1 U5+ .0079(2) .0075(2) .0025(1) 0. 0. 0.
O1 O2- .0131(8) .0146(9) .0025(4) 0. 0. 0.
O2 O2- .0108(6) .0096(5) .0064(3) 0. 0. 0.
#End of TTdata_99549-ICSD