
#(C) 2019 by FIZ Karlsruhe - Leibniz Institute for Information Infrastructure.  All rights reserved.
data_99580-ICSD
_database_code_ICSD 99580
_audit_creation_date 2005-04-01
_chemical_name_systematic 'Hexasodium dicobaltate(III)'
_chemical_formula_structural 'Na6 (Co2 O6)'
_chemical_formula_sum 'Co2 Na6 O6'
_exptl_crystal_density_diffrn 3.03
_publ_section_title 'Synthesis, structure and magnetic properties of Na6 Co2 O6'
loop_
_citation_id
_citation_journal_full
_citation_year
_citation_journal_volume
_citation_page_first
_citation_page_last
_citation_journal_id_ASTM
primary 'Journal of Solid State Chemistry' 2004 177 2550 2556 JSSCBI
loop_
_publ_author_name
'Sofin, M.'
'Peters, E.M.'
'Jansen, M.'
_cell_length_a 5.7345(3)
_cell_length_b 5.8903(3)
_cell_length_c 6.3503(3)
_cell_angle_alpha 64.538(2)
_cell_angle_beta 89.279(2)
_cell_angle_gamma 85.233(2)
_cell_volume 192.93
_cell_formula_units_Z 1
_symmetry_space_group_name_H-M 'P -1'
_symmetry_Int_Tables_number 2
_refine_ls_R_factor_all 0.0473
loop_
_symmetry_equiv_pos_site_id
_symmetry_equiv_pos_as_xyz
1 '-x, -y, -z'
2 'x, y, z'
loop_
_atom_type_symbol
_atom_type_oxidation_number
Co3+ 3
Na1+ 1
O2- -2
loop_
_atom_site_label
_atom_site_type_symbol
_atom_site_symmetry_multiplicity
_atom_site_Wyckoff_symbol
_atom_site_fract_x
_atom_site_fract_y
_atom_site_fract_z
_atom_site_B_iso_or_equiv
_atom_site_occupancy
_atom_site_attached_hydrogens
Co1 Co3+ 2 i 0.3590(1) 0.1907(1) 0.3115(1) . 1. 0
Na1 Na1+ 2 i 0.0629(3) 0.7683(4) 0.4444(3) . 1. 0
Na2 Na1+ 2 i 0.8556(3) 0.2345(4) 0.0237(3) . 1. 0
Na3 Na1+ 2 i 0.4366(3) 0.2585(4) 0.7445(3) . 1. 0
O1 O2- 2 i 0.2460(5) 0.1008(6) 0.0995(5) . 1. 0
O2 O2- 2 i 0.3075(5) 0.9230(6) 0.6242(5) . 1. 0
O3 O2- 2 i 0.2556(5) 0.4700(6) 0.3429(5) . 1. 0
loop_
_atom_site_aniso_label
_atom_site_aniso_type_symbol
_atom_site_aniso_U_11
_atom_site_aniso_U_22
_atom_site_aniso_U_33
_atom_site_aniso_U_12
_atom_site_aniso_U_13
_atom_site_aniso_U_23
Co1 Co3+ .0119(3) .0140(4) .0123(3) -.0017(3) .0012(2) -.0065(3)
Na1 Na1+ .0147(10) .0199(11) .0227(11) -.0037(9) .0044(8) -.0122(9)
Na2 Na1+ .0183(11) .0301(13) .0130(10) -.0003(9) .0018(8) -.0062(9)
Na3 Na1+ .0163(10) .0224(11) .0173(10) -.0060(9) .0035(8) -.0090(9)
O1 O2- .0122(17) .0202(19) .0131(16) -.0038(14) .0010(13) -.0094(15)
O2 O2- .0125(17) .0148(18) .0117(16) -.0038(14) .0026(13) -.0018(14)
O3 O2- .0127(17) .0131(17) .0176(18) -.0020(14) .0024(13) -.0086(14)
#End of TTdata_99580-ICSD