
#(C) 2019 by FIZ Karlsruhe - Leibniz Institute for Information Infrastructure.  All rights reserved.
data_99616-ICSD
_database_code_ICSD 99616
_audit_creation_date 2005-04-01
_audit_update_record 2011-02-01
_chemical_name_systematic 'Disodium calcium bis(phosphato(V))oxovanadate(IV)'
_chemical_formula_structural 'Na2 Ca ((V O) (P O4)2)'
_chemical_formula_sum 'Ca1 Na2 O9 P2 V1'
_chemical_name_structure_type Na2CaVO(PO4)2
_exptl_crystal_density_diffrn 3.28
_publ_section_title

;
Cryystal structure and properties of the new vanadyl(IV) phosphates Na2 M V O
(P O4)2, M = Ca and Sr
;
loop_
_citation_id
_citation_journal_full
_citation_year
_citation_journal_volume
_citation_page_first
_citation_page_last
_citation_journal_id_ASTM
primary 'Journal of Solid State Chemistry' 2004 177 2875 2880 JSSCBI
loop_
_publ_author_name
'Chernaya, V.V.'
'Tsirlin, A.A.'
'Shpanchenko, R.V.'
'Antipov, E.V.'
'Gippius, A.A.'
'Morozova, E.N.'
'D'yakov, V.'
'Hadermann, J.'
'Kaul, E.E.'
'Geibel, C.'
_cell_length_a 10.5233(3)
_cell_length_b 6.5578(2)
_cell_length_c 10.0536(3)
_cell_angle_alpha 90
_cell_angle_beta 90
_cell_angle_gamma 90
_cell_volume 693.8
_cell_formula_units_Z 4
_symmetry_space_group_name_H-M 'P n m a'
_symmetry_Int_Tables_number 62
_refine_ls_R_factor_all 0.017
loop_
_symmetry_equiv_pos_site_id
_symmetry_equiv_pos_as_xyz
1 'x+1/2, y, -z+1/2'
2 'x, -y+1/2, z'
3 '-x+1/2, y+1/2, z+1/2'
4 '-x, -y, -z'
5 '-x+1/2, -y, z+1/2'
6 '-x, y+1/2, -z'
7 'x+1/2, -y+1/2, -z+1/2'
8 'x, y, z'
loop_
_atom_type_symbol
_atom_type_oxidation_number
Ca2+ 2
V4+ 4
P5+ 5
Na1+ 1
O2- -2
loop_
_atom_site_label
_atom_site_type_symbol
_atom_site_symmetry_multiplicity
_atom_site_Wyckoff_symbol
_atom_site_fract_x
_atom_site_fract_y
_atom_site_fract_z
_atom_site_B_iso_or_equiv
_atom_site_occupancy
_atom_site_attached_hydrogens
Ca1 Ca2+ 4 c 0.5603(1) 0.25 0.5924(2) 0.013(1) 1. 0
V1 V4+ 4 c 0.0331(1) 0.25 0.3072(1) 0.015(1) 1. 0
P1 P5+ 4 c 0.3218(2) 0.25 0.4180(2) 0.013(1) 1. 0
P2 P5+ 4 c 0.9090(2) 0.25 0.6366(2) 0.014(1) 1. 0
Na1 Na1+ 8 d 0.7880(2) -0.0055(2) 0.3674(2) 0.019(1) 1. 0
O1 O2- 4 c 0.1762(3) 0.25 0.4350(4) 0.014(1) 1. 0
O2 O2- 8 d 0.9865(3) 0.0673(4) 0.6908(3) 0.014(1) 1. 0
O3 O2- 4 c 0.9074(4) 0.25 0.4828(4) 0.014(1) 1. 0
O4 O2- 8 d 0.3766(2) 0.0658(4) 0.4876(3) 0.014(1) 1. 0
O5 O2- 4 c 0.8546(4) 0.25 0.2287(4) 0.014(1) 1. 0
O6 O2- 4 c 0.6096(3) 0.25 0.3294(4) 0.014(1) 1. 0
O7 O2- 4 c 0.7733(4) 0.25 0.6952(4) 0.014(1) 1. 0
#End of TTdata_99616-ICSD