
#(C) 2019 by FIZ Karlsruhe - Leibniz Institute for Information Infrastructure.  All rights reserved.
data_99830-ICSD
_database_code_ICSD 99830
_audit_creation_date 2005-04-01
_audit_update_record 2010-02-01
_chemical_name_systematic 'Sodium cobalt oxide (0.61/1/2)'
_chemical_formula_structural 'Na0.61 (Co O2)'
_chemical_formula_sum 'Co1 Na0.61 O2'
_chemical_name_structure_type NaxCoO2
_exptl_crystal_density_diffrn 4.63
_cell_measurement_temperature 12.
_publ_section_title

;
Crystal structure of the sodium cobaltate deuterate superconductor Nax Co O2 *
4x(D2 O)
;
loop_
_citation_id
_citation_journal_full
_citation_year
_citation_journal_volume
_citation_page_first
_citation_page_last
_citation_journal_id_ASTM
primary 'Physical Review B: Condensed Matter and Materials Physics' 2003 68
214517-1 214517-10 PRBMDO
loop_
_publ_author_name
'Jorgensen, J.D.'
'Avdeev, M.'
'Hinks, D.G.'
'Burley, J.C.'
'Short, S.'
_cell_length_a 2.83176(3)
_cell_length_b 2.83176(3)
_cell_length_c 10.8431(2)
_cell_angle_alpha 90
_cell_angle_beta 90
_cell_angle_gamma 120
_cell_volume 75.3
_cell_formula_units_Z 2
_symmetry_space_group_name_H-M 'P 63/m m c'
_symmetry_Int_Tables_number 194
loop_
_symmetry_equiv_pos_site_id
_symmetry_equiv_pos_as_xyz
1 'x, x-y, -z+1/2'
2 '-x+y, y, -z+1/2'
3 '-y, -x, -z+1/2'
4 '-x+y, -x, -z+1/2'
5 '-y, x-y, -z+1/2'
6 'x, y, -z+1/2'
7 '-x, -x+y, z+1/2'
8 'x-y, -y, z+1/2'
9 'y, x, z+1/2'
10 'x-y, x, z+1/2'
11 'y, -x+y, z+1/2'
12 '-x, -y, z+1/2'
13 '-x, -x+y, -z'
14 'x-y, -y, -z'
15 'y, x, -z'
16 'x-y, x, -z'
17 'y, -x+y, -z'
18 '-x, -y, -z'
19 'x, x-y, z'
20 '-x+y, y, z'
21 '-y, -x, z'
22 '-x+y, -x, z'
23 '-y, x-y, z'
24 'x, y, z'
loop_
_atom_type_symbol
_atom_type_oxidation_number
Co3+ 3.39
O2- -2
Na1+ 1
loop_
_atom_site_label
_atom_site_type_symbol
_atom_site_symmetry_multiplicity
_atom_site_Wyckoff_symbol
_atom_site_fract_x
_atom_site_fract_y
_atom_site_fract_z
_atom_site_B_iso_or_equiv
_atom_site_occupancy
_atom_site_attached_hydrogens
Co1 Co3+ 2 a 0 0 0 . 1. 0
O1 O2- 4 f 0.3333 0.6667 0.09057(7) . 1. 0
Na1 Na1+ 6 h 0.577(2) 0.2885(10) 0.25 0.005(1) 0.146(2) 0
Na2 Na1+ 2 b 0 0 0.25 0.004(1) 0.171(5) 0
loop_
_atom_site_aniso_label
_atom_site_aniso_type_symbol
_atom_site_aniso_U_11
_atom_site_aniso_U_22
_atom_site_aniso_U_33
_atom_site_aniso_U_12
_atom_site_aniso_U_13
_atom_site_aniso_U_23
Co1 Co3+ .0020(3) .0020(3) .0065(7) .0010(2) 0. 0.
O1 O2- .0043(2) .0043(2) .0084(2) .0022(1) 0. 0.
#End of TTdata_99830-ICSD